 VARIABLES = X,Y,Z,DU1,DU2,DU3,U1,U2,U3,S11,S22,S33,S12,S13,S23
 ZONE, T="0.1000D+01" F=FEPOINT, I=   12 J=    2 ET=BRICK
   0.0000000000E+00   0.0000000000E+00   0.0000000000E+00   0.0000000000E+00   0.0000000000E+00   0.0000000000E+00   0.0000000000E+00   0.0000000000E+00   0.0000000000E+00   0.9999999987E+01  -0.2819331822E-07  -0.2814739909E-07  -0.1883981416E-15  -0.9800492357E-13  -0.2257046001E-12
   0.2000000000E+01   0.0000000000E+00  -0.1146676370E-13   0.1000000000E+00   0.0000000000E+00  -0.1146676370E-14   0.0000000000E+00   0.0000000000E+00   0.0000000000E+00   0.1000000000E+02  -0.1528983378E-07  -0.1525772870E-07   0.3288718539E-10   0.5415653195E-10   0.2514917334E-12
   0.2000000000E+01   0.5010000000E+00   0.6401031192E-13   0.1000000000E+00  -0.4990000000E-01   0.6401031192E-14   0.0000000000E+00   0.0000000000E+00   0.0000000000E+00   0.1000000001E+02  -0.3745242936E-08  -0.3713318403E-08   0.3989039427E-10  -0.1259257472E-10   0.3234294751E-10
   0.0000000000E+00   0.5010000000E+00  -0.6784606766E-13   0.0000000000E+00  -0.4990000000E-01  -0.6784606766E-14   0.0000000000E+00   0.0000000000E+00   0.0000000000E+00   0.1000000001E+02  -0.9446970035E-08  -0.9401351248E-08   0.7179481145E-11   0.1037563445E-11   0.4641410988E-10
   0.0000000000E+00   0.0000000000E+00   0.5010000000E+00   0.0000000000E+00   0.0000000000E+00  -0.4990000000E-01   0.0000000000E+00   0.0000000000E+00   0.0000000000E+00   0.1000000004E+02   0.2836270608E-07   0.2831543907E-07   0.2516215916E-15   0.1157463392E-12  -0.3769261954E-12
   0.2000000000E+01   0.0000000000E+00   0.5010000000E+00   0.1000000000E+00   0.0000000000E+00  -0.4990000000E-01   0.0000000000E+00   0.0000000000E+00   0.0000000000E+00   0.1000000003E+02   0.1536264766E-07   0.1533050687E-07  -0.3302765993E-10   0.5421841651E-10   0.1612216555E-12
   0.2000000000E+01   0.5010000000E+00   0.5010000000E+00   0.1000000000E+00  -0.4990000000E-01  -0.4990000000E-01   0.0000000000E+00   0.0000000000E+00   0.0000000000E+00   0.1000000002E+02   0.3658852071E-08   0.3626530738E-08  -0.4016056677E-10  -0.1235672170E-10   0.3225138684E-10
   0.0000000000E+00   0.5010000000E+00   0.5010000000E+00   0.0000000000E+00  -0.4990000000E-01  -0.4990000000E-01   0.0000000000E+00   0.0000000000E+00   0.0000000000E+00   0.1000000002E+02   0.9396464354E-08   0.9348896985E-08  -0.7577813594E-11   0.1251993799E-11   0.4626539258E-10
   0.4000000000E+01   0.0000000000E+00   0.4843985799E-13   0.2000000000E+00   0.0000000000E+00   0.4843985799E-14   0.0000000000E+00   0.0000000000E+00   0.0000000000E+00   0.1000000001E+02  -0.2605479501E-08  -0.2587305310E-08   0.4645034766E-10   0.5867807424E-10  -0.1899004988E-11
   0.4000000000E+01   0.5010000000E+00  -0.5209626324E-12   0.2000000000E+00  -0.4990000000E-01  -0.5209626324E-13   0.0000000000E+00   0.0000000000E+00   0.0000000000E+00   0.1000000002E+02   0.1854118570E-08   0.1872699984E-08   0.5327796839E-10  -0.3731511972E-10   0.1646857116E-10
   0.4000000000E+01   0.0000000000E+00   0.5010000000E+00   0.2000000000E+00   0.0000000000E+00  -0.4990000000E-01   0.0000000000E+00   0.0000000000E+00   0.0000000000E+00   0.1000000002E+02   0.2558529659E-08   0.2540034030E-08  -0.4672762229E-10   0.5858155777E-10  -0.1695316798E-11
   0.4000000000E+01   0.5010000000E+00   0.5010000000E+00   0.2000000000E+00  -0.4990000000E-01  -0.4990000000E-01   0.0000000000E+00   0.0000000000E+00   0.0000000000E+00   0.1000000001E+02  -0.1766055219E-08  -0.1784143626E-08  -0.5341780557E-10  -0.3704927004E-10   0.1667363814E-10
     1     2     3     4     5     6     7     8
     2     9    10     3     6    11    12     7
 VARIABLES = X,Y,Z,DU1,DU2,DU3,U1,U2,U3,S11,S22,S33,S12,S13,S23
 ZONE, T="0.2000D+01" F=FEPOINT, I=   12 J=    2 ET=BRICK
   0.0000000000E+00   0.0000000000E+00   0.0000000000E+00   0.0000000000E+00   0.0000000000E+00   0.0000000000E+00   0.0000000000E+00   0.0000000000E+00   0.0000000000E+00   0.1000000013E+02   0.1137649039E-06   0.1138133571E-06  -0.1981907194E-15  -0.7463738676E-11   0.6227740274E-11
   0.2000000000E+01   0.0000000000E+00  -0.1818352924E-11   0.7008157943E-11   0.0000000000E+00  -0.1806886160E-12   0.1000000000E+00   0.0000000000E+00  -0.1146676370E-14   0.1000000009E+02   0.7069787543E-07   0.7065631773E-07  -0.3502262786E-09  -0.4163637722E-09   0.2580923985E-11
   0.2000000000E+01   0.5010000000E+00  -0.1044511186E-11  -0.4477584969E-11   0.1128375171E-11  -0.1108521498E-12   0.1000000000E+00  -0.4990000000E-01   0.6401031192E-14   0.9999999961E+01  -0.5277128908E-07  -0.5281377999E-07  -0.3034011630E-09   0.2915072618E-09  -0.4044472759E-10
   0.0000000000E+00   0.5010000000E+00   0.1866896806E-11   0.0000000000E+00  -0.8715250743E-14   0.1934742874E-12   0.0000000000E+00  -0.4990000000E-01  -0.6784606766E-14   0.9999999928E+01  -0.8585831893E-07  -0.8580624668E-07   0.4416095706E-10  -0.1679570859E-10   0.5187810122E-10
   0.0000000000E+00   0.0000000000E+00   0.5010000000E+00   0.0000000000E+00   0.0000000000E+00   0.2937927679E-13   0.0000000000E+00   0.0000000000E+00  -0.4990000000E-01   0.9999999901E+01  -0.1129665466E-06  -0.1130092946E-06   0.2614844621E-15  -0.7381364958E-11   0.8036539947E-11
   0.2000000000E+01   0.0000000000E+00   0.5010000000E+00  -0.6997624702E-11   0.0000000000E+00  -0.1554451012E-12   0.1000000000E+00   0.0000000000E+00  -0.4990000000E-01   0.9999999944E+01  -0.7005549592E-07  -0.7001100664E-07   0.3499159193E-09  -0.4164529849E-09   0.2114200342E-11
   0.2000000000E+01   0.5010000000E+00   0.5010000000E+00   0.4483025062E-11  -0.1123635907E-11  -0.9689471447E-13   0.1000000000E+00  -0.4990000000E-01  -0.4990000000E-01   0.1000000007E+02   0.5344540596E-07   0.5348896204E-07   0.3036453898E-09   0.2896679727E-09  -0.4091274182E-10
   0.0000000000E+00   0.5010000000E+00   0.5010000000E+00   0.0000000000E+00  -0.3837902218E-13   0.2816150091E-12   0.0000000000E+00  -0.4990000000E-01  -0.4990000000E-01   0.1000000010E+02   0.8798233105E-07   0.8794320218E-07  -0.4230802595E-10  -0.1925534540E-10   0.5368940519E-10
   0.4000000000E+01   0.0000000000E+00  -0.1959908263E-11   0.8016032282E-11   0.0000000000E+00  -0.2008348121E-12   0.2000000000E+00   0.0000000000E+00   0.4843985799E-14   0.1000000004E+02   0.2929634568E-07   0.2915722397E-07  -0.4939343630E-09  -0.4768163695E-09   0.2168062123E-10
   0.4000000000E+01   0.5010000000E+00   0.4539863651E-11  -0.8184702915E-11   0.2379006714E-11   0.5060826284E-12   0.2000000000E+00  -0.4990000000E-01  -0.5209626324E-13   0.9999999996E+01  -0.1749072250E-07  -0.1763321322E-07  -0.4444444144E-09   0.5378246053E-09  -0.1188603258E-09
   0.4000000000E+01   0.0000000000E+00   0.5010000000E+00  -0.8058081979E-11   0.0000000000E+00  -0.1805153249E-12   0.2000000000E+00   0.0000000000E+00  -0.4990000000E-01   0.9999999984E+01  -0.2990591132E-07  -0.2976400279E-07   0.4959280831E-09  -0.4770837030E-09   0.1999624078E-10
   0.4000000000E+01   0.5010000000E+00   0.5010000000E+00   0.8210737645E-11  -0.2385071307E-11   0.4697978118E-12   0.2000000000E+00  -0.4990000000E-01  -0.4990000000E-01   0.1000000003E+02   0.1667505280E-07   0.1681359232E-07   0.4456928768E-09   0.5366142378E-09  -0.1205433274E-09
     1     2     3     4     5     6     7     8
     2     9    10     3     6    11    12     7
 VARIABLES = X,Y,Z,DU1,DU2,DU3,U1,U2,U3,S11,S22,S33,S12,S13,S23
 ZONE, T="0.3000D+01" F=FEPOINT, I=   12 J=    2 ET=BRICK
   0.0000000000E+00   0.0000000000E+00   0.0000000000E+00   0.0000000000E+00   0.0000000000E+00   0.0000000000E+00   0.0000000000E+00   0.0000000000E+00   0.0000000000E+00   0.1000000002E+02  -0.1553734971E-12  -0.1464415892E-12   0.1159913450E-15  -0.1072300641E-13   0.1164011906E-13
   0.2000000000E+01   0.0000000000E+00  -0.4821090647E-14  -0.6201279667E-11   0.0000000000E+00   0.1813531833E-12   0.1000000000E+00   0.0000000000E+00  -0.1818352924E-12   0.1000000002E+02   0.2873791602E-12   0.2361535753E-12   0.3019980439E-14  -0.4256188130E-14   0.1208417857E-13
   0.2000000000E+01   0.5010000000E+00  -0.1290945308E-14   0.4298618059E-11  -0.6474850397E-12   0.1043220240E-12   0.1000000000E+00  -0.4990000000E-01  -0.1044511186E-12   0.1000000001E+02  -0.3070636684E-13  -0.8531128091E-13  -0.6935493118E-14  -0.5533679525E-14  -0.1083867155E-13
   0.0000000000E+00   0.5010000000E+00   0.3514132180E-14   0.0000000000E+00   0.7033993190E-12  -0.1863382674E-12   0.0000000000E+00  -0.4990000000E-01   0.1866896806E-12   0.1000000001E+02   0.3893962242E-13   0.4262438506E-13  -0.1054859317E-13  -0.1148866355E-13  -0.8494895978E-14
   0.0000000000E+00   0.0000000000E+00   0.5010000000E+00   0.0000000000E+00   0.0000000000E+00  -0.2522591343E-13   0.0000000000E+00   0.0000000000E+00  -0.4990000000E-01   0.1000000001E+02   0.3742358405E-12   0.3831677485E-12  -0.1440867778E-15  -0.1137997586E-14   0.8210923814E-14
   0.2000000000E+01   0.0000000000E+00   0.5010000000E+00   0.6183969039E-11   0.0000000000E+00   0.1556780815E-12   0.9999999999E-01   0.0000000000E+00  -0.4990000000E-01   0.1000000001E+02  -0.8971857685E-13  -0.1409441617E-12   0.1793229197E-14   0.5454343403E-14   0.1030270689E-13
   0.2000000000E+01   0.5010000000E+00   0.5010000000E+00  -0.4306481489E-11   0.6417784563E-12   0.9260863081E-13   0.1000000000E+00  -0.4990000000E-01  -0.4990000000E-01   0.1000000001E+02  -0.6674364131E-13  -0.1213485554E-12  -0.9426190763E-14   0.6452796059E-14  -0.1234543464E-13
   0.0000000000E+00   0.5010000000E+00   0.5010000000E+00   0.0000000000E+00  -0.6658505119E-12  -0.2659196439E-12   0.0000000000E+00  -0.4990000000E-01  -0.4990000000E-01   0.1000000001E+02   0.3980187360E-12   0.4017034986E-12  -0.1294044671E-13   0.7014295312E-15  -0.1110146738E-13
   0.4000000000E+01   0.0000000000E+00  -0.1594393161E-13  -0.7143585436E-11   0.0000000000E+00   0.1943964332E-12   0.2000000000E+00   0.0000000000E+00  -0.1959908263E-12   0.1000000002E+02   0.4376307168E-12   0.5219769367E-12   0.3993916891E-14   0.1866980710E-14   0.1191091549E-13
   0.4000000000E+01   0.5010000000E+00  -0.1235998891E-13   0.7664638814E-11  -0.2104852273E-11  -0.4552223640E-12   0.2000000000E+00  -0.4990000000E-01   0.4539863651E-12   0.1000000001E+02  -0.4646392456E-13   0.3786958312E-13  -0.5946797896E-14  -0.1028712055E-14  -0.1040597277E-13
   0.4000000000E+01   0.0000000000E+00   0.5010000000E+00   0.7180502648E-11   0.0000000000E+00   0.1751666974E-12   0.2000000000E+00   0.0000000000E+00  -0.4990000000E-01   0.1000000001E+02   0.1770072927E-12   0.2613535126E-12   0.2175855396E-14   0.9874128881E-14   0.1159496897E-13
   0.4000000000E+01   0.5010000000E+00   0.5010000000E+00  -0.7687316234E-11   0.2107864378E-11  -0.4239817821E-12   0.2000000000E+00  -0.4990000000E-01  -0.4990000000E-01   0.1000000001E+02   0.5455638005E-12   0.6298973082E-12  -0.8160976782E-14   0.7722586785E-14  -0.1174678420E-13
     1     2     3     4     5     6     7     8
     2     9    10     3     6    11    12     7
 VARIABLES = X,Y,Z,DU1,DU2,DU3,U1,U2,U3,S11,S22,S33,S12,S13,S23
 ZONE, T="0.4000D+01" F=FEPOINT, I=   12 J=    2 ET=BRICK
   0.0000000000E+00   0.0000000000E+00   0.0000000000E+00   0.0000000000E+00   0.0000000000E+00   0.0000000000E+00   0.0000000000E+00   0.0000000000E+00   0.0000000000E+00   0.1000000002E+02   0.2194060256E-12   0.2339741145E-12  -0.1970038236E-15  -0.4837285116E-14   0.1190946173E-13
   0.2000000000E+01   0.0000000000E+00  -0.2349241557E-14   0.1013272385E-14   0.0000000000E+00   0.2471849090E-15   0.1000000000E+00   0.0000000000E+00  -0.4821090647E-15   0.1000000002E+02  -0.2839933327E-13  -0.1348937929E-13   0.1086943184E-13   0.2969489251E-14   0.1138125032E-13
   0.2000000000E+01   0.5010000000E+00   0.1111041796E-14   0.1229634019E-14  -0.8786206770E-15   0.2401987104E-15   0.1000000000E+00  -0.4990000000E-01  -0.1290945308E-15   0.1000000001E+02  -0.6938755939E-13  -0.7168812019E-13   0.8958500457E-14  -0.1981894198E-14  -0.2059249882E-14
   0.0000000000E+00   0.5010000000E+00   0.3592633533E-14   0.0000000000E+00  -0.1129954687E-14   0.7850135337E-17   0.0000000000E+00  -0.4990000000E-01   0.3514132180E-15   0.1000000001E+02  -0.4604590970E-13  -0.5238313534E-13  -0.2377599574E-14  -0.4856441266E-14  -0.2565450542E-14
   0.0000000000E+00   0.0000000000E+00   0.5010000000E+00   0.0000000000E+00   0.0000000000E+00   0.1049825986E-15   0.0000000000E+00   0.0000000000E+00  -0.4990000000E-01   0.1000000001E+02   0.9327555263E-13   0.1078436415E-12   0.1917850634E-15  -0.3671693969E-14   0.2185700743E-14
   0.2000000000E+01   0.0000000000E+00   0.5010000000E+00   0.8197249614E-15   0.0000000000E+00   0.9154903055E-16   0.1000000000E+00   0.0000000000E+00  -0.4990000000E-01   0.1000000001E+02   0.7637941216E-14   0.2254789520E-13   0.8114942170E-14   0.2503745959E-14   0.2046611487E-14
   0.2000000000E+01   0.5010000000E+00   0.5010000000E+00   0.1034614018E-14  -0.6080807090E-15  -0.1515487306E-15   0.1000000000E+00  -0.4990000000E-01  -0.4990000000E-01   0.1000000001E+02   0.3077101776E-12   0.3054096168E-12   0.8874045436E-14   0.3455097367E-15  -0.1084333113E-13
   0.0000000000E+00   0.5010000000E+00   0.5010000000E+00   0.0000000000E+00  -0.9618886519E-15  -0.8429644903E-16   0.0000000000E+00  -0.4990000000E-01  -0.4990000000E-01   0.1000000001E+02  -0.3427066066E-12  -0.3490438323E-12  -0.8320820842E-15  -0.3338397785E-14  -0.1337314911E-13
   0.4000000000E+01   0.0000000000E+00  -0.8255492517E-14   0.2072153678E-14   0.0000000000E+00   0.7688439091E-15   0.2000000000E+00   0.0000000000E+00  -0.1594393161E-14   0.1000000002E+02  -0.6943875435E-13  -0.5659063842E-13   0.1681900360E-13   0.3549539321E-14   0.9616522166E-14
   0.4000000000E+01   0.5010000000E+00  -0.5355748784E-14   0.2495774504E-14  -0.6094357077E-15   0.7004240124E-15   0.2000000000E+00  -0.4990000000E-01  -0.1235998891E-14   0.1000000001E+02   0.1142032621E-12   0.1135356630E-12   0.1632141380E-13   0.1482088553E-14  -0.2235152223E-14
   0.4000000000E+01   0.0000000000E+00   0.5010000000E+00   0.1561487315E-14   0.0000000000E+00   0.2782411780E-15   0.2000000000E+00   0.0000000000E+00  -0.4990000000E-01   0.1000000001E+02  -0.8944151201E-12  -0.8815670041E-12   0.1986860942E-13  -0.7917198719E-15   0.3114278191E-14
   0.4000000000E+01   0.5010000000E+00   0.5010000000E+00   0.2065196911E-14  -0.2892411124E-15   0.1703375791E-16   0.2000000000E+00  -0.4990000000E-01  -0.4990000000E-01   0.1000000001E+02   0.1418780455E-12   0.1412104463E-12   0.1814242102E-13   0.4779977837E-14  -0.9709308039E-14
     1     2     3     4     5     6     7     8
     2     9    10     3     6    11    12     7
 VARIABLES = X,Y,Z,DU1,DU2,DU3,U1,U2,U3,S11,S22,S33,S12,S13,S23
 ZONE, T="0.5000D+01" F=FEPOINT, I=   12 J=    2 ET=BRICK
   0.0000000000E+00   0.0000000000E+00   0.0000000000E+00   0.0000000000E+00   0.0000000000E+00   0.0000000000E+00   0.0000000000E+00   0.0000000000E+00   0.0000000000E+00   0.1000000002E+02  -0.2107760933E-12  -0.1755286377E-12   0.1370291773E-15  -0.1035922813E-13  -0.3297884994E-14
   0.2000000000E+01   0.0000000000E+00  -0.1453828150E-14  -0.5496623842E-16   0.0000000000E+00   0.8954134070E-16   0.1000000000E+00   0.0000000000E+00  -0.2349241557E-15   0.1000000002E+02  -0.2930271007E-12  -0.2469795913E-12  -0.2169612557E-14   0.6246981624E-15  -0.3167652089E-14
   0.2000000000E+01   0.5010000000E+00  -0.2454866674E-14  -0.4243001454E-15  -0.5131558044E-16  -0.3565908470E-15   0.1000000000E+00  -0.4990000000E-01   0.1111041796E-15   0.1000000001E+02   0.4027368422E-12   0.4523044514E-12   0.5117479991E-16   0.1902140819E-14   0.1729070669E-14
   0.0000000000E+00   0.5010000000E+00  -0.9552612579E-15   0.0000000000E+00   0.3303040083E-15  -0.4547894791E-15   0.0000000000E+00  -0.4990000000E-01   0.3592633533E-15   0.1000000001E+02   0.3046010080E-13   0.6768313875E-13  -0.2316831559E-13  -0.9973247953E-14   0.1466426113E-14
   0.0000000000E+00   0.0000000000E+00   0.5010000000E+00   0.0000000000E+00   0.0000000000E+00  -0.2621307092E-15   0.0000000000E+00   0.0000000000E+00  -0.4990000000E-01   0.1000000001E+02   0.2827959713E-12   0.8509478631E-13   0.1071140930E-15   0.1266954716E-13  -0.1497498405E-14
   0.2000000000E+01   0.0000000000E+00   0.5010000000E+00  -0.6741207784E-15   0.0000000000E+00   0.2235844218E-15   0.1000000000E+00   0.0000000000E+00  -0.4990000000E-01   0.1000000001E+02   0.8407063640E-13   0.1301181458E-12  -0.7991014025E-15  -0.2040668933E-14  -0.1520308486E-14
   0.2000000000E+01   0.5010000000E+00   0.5010000000E+00  -0.9647105288E-15   0.4923777987E-15   0.1157109386E-15   0.1000000000E+00  -0.4990000000E-01  -0.4990000000E-01   0.1000000001E+02  -0.2433468085E-12  -0.1937791993E-12   0.1233162885E-14  -0.3872422425E-15   0.2769843790E-14
   0.0000000000E+00   0.5010000000E+00   0.5010000000E+00   0.0000000000E+00   0.9287589084E-15  -0.3818918475E-15   0.0000000000E+00  -0.4990000000E-01  -0.4990000000E-01   0.1000000001E+02   0.1244146432E-13  -0.1832841384E-12  -0.2383857376E-13   0.1242664055E-13   0.4227437415E-14
   0.4000000000E+01   0.0000000000E+00   0.3380382479E-14  -0.2303821406E-15   0.0000000000E+00   0.1163587500E-14   0.2000000000E+00   0.0000000000E+00  -0.8255492517E-15   0.1000000002E+02  -0.1700584355E-12  -0.3768276510E-12  -0.1195704336E-14   0.1170473806E-13  -0.3030555572E-14
   0.4000000000E+01   0.5010000000E+00   0.2532198378E-14  -0.8192394829E-15   0.5572340999E-15   0.7887947162E-15   0.2000000000E+00  -0.4990000000E-01  -0.5355748784E-15   0.1000000001E+02   0.2872876580E-12   0.8275199147E-13   0.2578906912E-13   0.1317978128E-13   0.1506602723E-14
   0.4000000000E+01   0.0000000000E+00   0.5010000000E+00  -0.1257247076E-14   0.0000000000E+00   0.7826982143E-15   0.2000000000E+00   0.0000000000E+00  -0.4990000000E-01   0.1000000001E+02   0.4316254365E-12   0.4578048616E-12  -0.4424163025E-14  -0.1402085179E-13  -0.1393989162E-14
   0.4000000000E+01   0.5010000000E+00   0.5010000000E+00  -0.1928895621E-14   0.1054776058E-14   0.6443096476E-15   0.2000000000E+00  -0.4990000000E-01  -0.4990000000E-01   0.1000000001E+02  -0.6458005442E-12  -0.6173875701E-12   0.2335006815E-13  -0.1582523480E-13   0.2397554108E-14
     1     2     3     4     5     6     7     8
     2     9    10     3     6    11    12     7
 VARIABLES = X,Y,Z,DU1,DU2,DU3,U1,U2,U3,S11,S22,S33,S12,S13,S23
 ZONE, T="0.6000D+01" F=FEPOINT, I=   12 J=    2 ET=BRICK
   0.0000000000E+00   0.0000000000E+00   0.0000000000E+00   0.0000000000E+00   0.0000000000E+00   0.0000000000E+00   0.0000000000E+00   0.0000000000E+00   0.0000000000E+00   0.1000000002E+02   0.2451691286E-12   0.3536224593E-12   0.9425961690E-17   0.1113831248E-13  -0.1442575070E-13
   0.2000000000E+01   0.0000000000E+00   0.5408278405E-14   0.6364328840E-15   0.0000000000E+00   0.6862106554E-15   0.1000000000E+00   0.0000000000E+00  -0.1453828150E-15   0.1000000002E+02   0.3614528459E-12   0.2387794075E-12  -0.2327971674E-14   0.6543206844E-15  -0.1577716325E-13
   0.2000000000E+01   0.5010000000E+00   0.6933947082E-15   0.6283936072E-15  -0.1252048520E-15   0.3148261382E-15   0.1000000000E+00  -0.4990000000E-01  -0.2454866674E-15   0.1000000001E+02  -0.3093125838E-12  -0.4290641975E-12  -0.9716305858E-15   0.2395997983E-14   0.1527702470E-13
   0.0000000000E+00   0.5010000000E+00  -0.4446705552E-14   0.0000000000E+00  -0.7033175038E-15  -0.3491444294E-15   0.0000000000E+00  -0.4990000000E-01  -0.9552612579E-16   0.1000000001E+02  -0.6065636197E-12  -0.4977855579E-12   0.6097240183E-14   0.9847664196E-14   0.1449502354E-13
   0.0000000000E+00   0.0000000000E+00   0.5010000000E+00   0.0000000000E+00   0.0000000000E+00   0.9615442908E-16   0.0000000000E+00   0.0000000000E+00  -0.4990000000E-01   0.1000000001E+02  -0.2136593028E-12  -0.4234197248E-12   0.2812975029E-15   0.3586817890E-14  -0.1491090770E-13
   0.2000000000E+01   0.0000000000E+00   0.5010000000E+00  -0.1652236572E-15   0.0000000000E+00   0.1800381612E-15   0.1000000000E+00   0.0000000000E+00  -0.4990000000E-01   0.1000000001E+02  -0.5168216563E-13  -0.3825372784E-14   0.9667626476E-15  -0.1959520078E-14  -0.1435936110E-13
   0.2000000000E+01   0.5010000000E+00   0.5010000000E+00  -0.1020621101E-15   0.6691700529E-15  -0.2045155234E-15   0.1000000000E+00  -0.4990000000E-01  -0.4990000000E-01   0.1000000001E+02   0.3007337923E-12   0.3515124099E-12   0.4227254710E-14   0.4611904410E-15   0.1703463095E-13
   0.0000000000E+00   0.5010000000E+00   0.5010000000E+00   0.0000000000E+00   0.4649194487E-16  -0.2949744702E-15   0.0000000000E+00  -0.4990000000E-01  -0.4990000000E-01   0.1000000001E+02   0.4693800232E-12   0.2599443324E-12   0.6997608922E-14   0.4732190593E-14   0.1518215608E-13
   0.4000000000E+01   0.0000000000E+00   0.1977169151E-13   0.1340830595E-14   0.0000000000E+00   0.1639130903E-14   0.2000000000E+00   0.0000000000E+00   0.3380382479E-15   0.1000000002E+02  -0.2185212845E-13  -0.2480615076E-13  -0.6890911643E-14  -0.9078868563E-14  -0.1941660730E-13
   0.4000000000E+01   0.5010000000E+00   0.1393527370E-13   0.1229831556E-14  -0.7376659560E-15   0.1140307532E-14   0.2000000000E+00  -0.4990000000E-01   0.2532198378E-15   0.1000000001E+02   0.1812953584E-12   0.1866913227E-12  -0.8978571853E-14  -0.8129302624E-14   0.1308261247E-13
   0.4000000000E+01   0.0000000000E+00   0.5010000000E+00  -0.3540414646E-15   0.0000000000E+00   0.1659657832E-14   0.2000000000E+00   0.0000000000E+00  -0.4990000000E-01   0.1000000001E+02  -0.3892937201E-12  -0.4150944524E-12  -0.4122114731E-15  -0.1309847267E-13  -0.1480583459E-13
   0.4000000000E+01   0.5010000000E+00   0.5010000000E+00  -0.2731406676E-15   0.1097016756E-15   0.1258529671E-14   0.2000000000E+00  -0.4990000000E-01  -0.4990000000E-01   0.1000000001E+02   0.3254444678E-12   0.3079937222E-12  -0.3153523942E-14  -0.2102319364E-14   0.1644904561E-13
     1     2     3     4     5     6     7     8
     2     9    10     3     6    11    12     7
 VARIABLES = X,Y,Z,DU1,DU2,DU3,U1,U2,U3,S11,S22,S33,S12,S13,S23
 ZONE, T="0.7000D+01" F=FEPOINT, I=   12 J=    2 ET=BRICK
   0.0000000000E+00   0.0000000000E+00   0.0000000000E+00   0.0000000000E+00   0.0000000000E+00   0.0000000000E+00   0.0000000000E+00   0.0000000000E+00   0.0000000000E+00   0.1000000002E+02   0.4235240006E-12   0.4751300204E-12  -0.2869309383E-15   0.1340221790E-13  -0.1183090036E-13
   0.2000000000E+01   0.0000000000E+00   0.5486983750E-14  -0.9675765632E-15   0.0000000000E+00   0.7870534513E-17   0.1000000000E+00   0.0000000000E+00   0.5408278405E-15   0.1000000002E+02   0.1850267098E-12   0.2395710983E-12  -0.2250929547E-14   0.5943815355E-14  -0.1268534941E-13
   0.2000000000E+01   0.5010000000E+00   0.1636850131E-14  -0.9746216116E-15   0.3119370692E-15   0.9434554224E-16   0.1000000000E+00  -0.4990000000E-01   0.6933947082E-16   0.1000000001E+02   0.2435007656E-12   0.3037929938E-12   0.6116202703E-14   0.5262996964E-14   0.9188639978E-14
   0.0000000000E+00   0.5010000000E+00  -0.3424138255E-14   0.0000000000E+00   0.5492964556E-16   0.1022567297E-15   0.0000000000E+00  -0.4990000000E-01  -0.4446705552E-15   0.1000000001E+02   0.4858344681E-12   0.5421352438E-12   0.1531065835E-13   0.1241567086E-13   0.8873661617E-14
   0.0000000000E+00   0.0000000000E+00   0.5010000000E+00   0.0000000000E+00   0.0000000000E+00   0.8910196332E-15   0.0000000000E+00   0.0000000000E+00  -0.4990000000E-01   0.1000000001E+02  -0.3869681709E-12  -0.3353621512E-12   0.2866731196E-15  -0.2575919184E-14  -0.8487070242E-14
   0.2000000000E+01   0.0000000000E+00   0.5010000000E+00  -0.6448993102E-15   0.0000000000E+00   0.6426936920E-15   0.1000000000E+00   0.0000000000E+00  -0.4990000000E-01   0.1000000001E+02  -0.3072517018E-12  -0.2527073133E-12  -0.2432946403E-14  -0.4240966547E-14  -0.9571994212E-14
   0.2000000000E+01   0.5010000000E+00   0.5010000000E+00  -0.7445520271E-15   0.4186497821E-16   0.7837687523E-15   0.1000000000E+00  -0.4990000000E-01  -0.4990000000E-01   0.1000000001E+02  -0.2487776459E-12  -0.1884854177E-12   0.9151265645E-14  -0.5375793631E-14   0.1309450484E-13
   0.0000000000E+00   0.5010000000E+00   0.5010000000E+00   0.0000000000E+00  -0.2333427396E-15   0.1066464741E-14   0.0000000000E+00  -0.4990000000E-01  -0.4990000000E-01   0.1000000001E+02  -0.3246577034E-12  -0.2683569276E-12   0.1636563593E-13  -0.2487705088E-14   0.1086422178E-13
   0.4000000000E+01   0.0000000000E+00   0.1630281747E-13  -0.1946709296E-14   0.0000000000E+00  -0.3468874044E-15   0.2000000000E+00   0.0000000000E+00   0.1977169151E-14   0.1000000002E+02   0.4793181811E-12   0.3568656964E-12  -0.6824934907E-14  -0.3324387428E-14  -0.1381540553E-13
   0.4000000000E+01   0.5010000000E+00   0.1220602301E-13  -0.1941785049E-14   0.4891724967E-15  -0.1729250688E-15   0.2000000000E+00  -0.4990000000E-01   0.1393527370E-14   0.1000000001E+02   0.1875662930E-12   0.7074899769E-13  -0.4066380387E-14  -0.6644947898E-14   0.1120983510E-13
   0.4000000000E+01   0.0000000000E+00   0.5010000000E+00  -0.1331309787E-14   0.0000000000E+00   0.1422580909E-15   0.2000000000E+00   0.0000000000E+00  -0.4990000000E-01   0.1000000001E+02   0.3052535294E-12   0.1828010447E-12  -0.5681280577E-14  -0.8690465002E-14  -0.9896682247E-14
   0.4000000000E+01   0.5010000000E+00   0.5010000000E+00  -0.1461398485E-14   0.2452937724E-15   0.2884906986E-15   0.2000000000E+00  -0.4990000000E-01  -0.4990000000E-01   0.1000000001E+02   0.1350164135E-13  -0.1033156539E-12  -0.1269045734E-15  -0.5274568442E-14   0.1303073747E-13
     1     2     3     4     5     6     7     8
     2     9    10     3     6    11    12     7
 VARIABLES = X,Y,Z,DU1,DU2,DU3,U1,U2,U3,S11,S22,S33,S12,S13,S23
 ZONE, T="0.8000D+01" F=FEPOINT, I=   12 J=    2 ET=BRICK
   0.0000000000E+00   0.0000000000E+00   0.0000000000E+00   0.0000000000E+00   0.0000000000E+00   0.0000000000E+00   0.0000000000E+00   0.0000000000E+00   0.0000000000E+00   0.1000000002E+02  -0.1965437403E-12  -0.1475755499E-12   0.1109680064E-15   0.1803151169E-13  -0.2028181746E-13
   0.2000000000E+01   0.0000000000E+00   0.8387840790E-14   0.7455047158E-15   0.0000000000E+00   0.2900857040E-15   0.1000000000E+00   0.0000000000E+00   0.5486983750E-15   0.1000000002E+02   0.1664174118E-12   0.3000918588E-12   0.1102956264E-13  -0.2221778260E-14  -0.1847461416E-13
   0.2000000000E+01   0.5010000000E+00   0.2810376665E-14   0.1147967234E-14  -0.7116651155E-15   0.1173526534E-15   0.1000000000E+00  -0.4990000000E-01   0.1636850131E-15   0.1000000001E+02  -0.1803128346E-12  -0.7086426408E-13   0.8394096092E-14  -0.1186872103E-14   0.3044646066E-13
   0.0000000000E+00   0.5010000000E+00  -0.6042078364E-14   0.0000000000E+00  -0.5891249467E-15  -0.2617940109E-15   0.0000000000E+00  -0.4990000000E-01  -0.3424138255E-15   0.1000000001E+02  -0.6504364935E-12  -0.6233471794E-12   0.1466329655E-13   0.1955834617E-13   0.3080783541E-13
   0.0000000000E+00   0.0000000000E+00   0.5010000000E+00   0.0000000000E+00   0.0000000000E+00  -0.1954251824E-15   0.0000000000E+00   0.0000000000E+00  -0.4990000000E-01   0.1000000001E+02  -0.1618000955E-12  -0.2965527067E-12  -0.2282045264E-15   0.6219667588E-14  -0.3087090891E-13
   0.2000000000E+01   0.0000000000E+00   0.5010000000E+00  -0.1239900229E-15   0.0000000000E+00   0.3123518612E-15   0.1000000000E+00   0.0000000000E+00  -0.4990000000E-01   0.1000000001E+02  -0.8584350959E-13  -0.5062474491E-13   0.1122621036E-13   0.8765426772E-15  -0.3055629109E-13
   0.2000000000E+01   0.5010000000E+00   0.5010000000E+00   0.2689551139E-15   0.9527409282E-16  -0.3211546161E-15   0.1000000000E+00  -0.4990000000E-01  -0.4990000000E-01   0.1000000001E+02   0.5906076316E-12   0.6016005198E-12   0.7175233202E-14   0.1639770900E-14   0.1784018085E-13
   0.0000000000E+00   0.5010000000E+00   0.5010000000E+00   0.0000000000E+00   0.3503834016E-15  -0.8603441087E-15   0.0000000000E+00  -0.4990000000E-01  -0.4990000000E-01   0.1000000001E+02   0.9190792255E-12   0.7624477380E-12   0.1114311018E-13   0.6399566783E-14   0.2153632995E-13
   0.4000000000E+01   0.0000000000E+00   0.2859117745E-13   0.1407875562E-14   0.0000000000E+00   0.1228835998E-14   0.2000000000E+00   0.0000000000E+00   0.1630281747E-14   0.1000000002E+02  -0.2438753106E-12  -0.1818245588E-12   0.2346672908E-13  -0.2107263639E-13  -0.1760090037E-13
   0.4000000000E+01   0.5010000000E+00   0.2325227567E-13   0.2300190923E-14  -0.1253725531E-14   0.1104625266E-14   0.2000000000E+00  -0.4990000000E-01   0.1220602301E-14   0.1000000001E+02  -0.1368869845E-12  -0.1000768418E-12   0.4329307214E-14  -0.2293855300E-13   0.3103805986E-13
   0.4000000000E+01   0.0000000000E+00   0.5010000000E+00  -0.2273662425E-15   0.0000000000E+00   0.1826491851E-14   0.2000000000E+00   0.0000000000E+00  -0.4990000000E-01   0.1000000001E+02  -0.4420803356E-12  -0.3932201468E-12   0.2342464507E-13  -0.2276772625E-14  -0.3105910457E-13
   0.4000000000E+01   0.5010000000E+00   0.5010000000E+00   0.6541735084E-15  -0.5316764058E-15   0.1223997336E-14   0.2000000000E+00  -0.4990000000E-01  -0.4990000000E-01   0.1000000001E+02   0.1764986917E-12   0.2001182712E-12   0.5088210751E-14  -0.2136456643E-14   0.1791903357E-13
     1     2     3     4     5     6     7     8
     2     9    10     3     6    11    12     7
 VARIABLES = X,Y,Z,DU1,DU2,DU3,U1,U2,U3,S11,S22,S33,S12,S13,S23
 ZONE, T="0.9000D+01" F=FEPOINT, I=   12 J=    2 ET=BRICK
   0.0000000000E+00   0.0000000000E+00   0.0000000000E+00   0.0000000000E+00   0.0000000000E+00   0.0000000000E+00   0.0000000000E+00   0.0000000000E+00   0.0000000000E+00   0.1000000002E+02   0.3493296428E-13  -0.9361309944E-13  -0.6370136201E-16   0.9945244824E-15  -0.9781278616E-14