 VARIABLES = X,Y,Z,DU1,DU2,DU3,U1,U2,U3,S11,S22,S33,S12,S13,S23
 ZONE, T="0.1000D+01" F=FEPOINT, I=   12 J=    2 ET=BRICK
                NaN                NaN                NaN                NaN                NaN                NaN   0.0000000000E+00   0.0000000000E+00   0.0000000000E+00                NaN                NaN                NaN                NaN                NaN                NaN
                NaN                NaN                NaN                NaN                NaN                NaN   0.0000000000E+00   0.0000000000E+00   0.0000000000E+00                NaN                NaN                NaN                NaN                NaN                NaN
                NaN                NaN                NaN                NaN                NaN                NaN   0.0000000000E+00   0.0000000000E+00   0.0000000000E+00                NaN                NaN                NaN                NaN                NaN                NaN
                NaN                NaN                NaN                NaN                NaN                NaN   0.0000000000E+00   0.0000000000E+00   0.0000000000E+00                NaN                NaN                NaN                NaN                NaN                NaN
                NaN                NaN                NaN                NaN                NaN                NaN   0.0000000000E+00   0.0000000000E+00   0.0000000000E+00                NaN                NaN                NaN                NaN                NaN                NaN
                NaN                NaN                NaN                NaN                NaN                NaN   0.0000000000E+00   0.0000000000E+00   0.0000000000E+00                NaN                NaN                NaN                NaN                NaN                NaN
                NaN                NaN                NaN                NaN                NaN                NaN   0.0000000000E+00   0.0000000000E+00   0.0000000000E+00                NaN                NaN                NaN                NaN                NaN                NaN
                NaN                NaN                NaN                NaN                NaN                NaN   0.0000000000E+00   0.0000000000E+00   0.0000000000E+00                NaN                NaN                NaN                NaN                NaN                NaN
                NaN                NaN                NaN                NaN                NaN                NaN   0.0000000000E+00   0.0000000000E+00   0.0000000000E+00                NaN                NaN                NaN                NaN                NaN                NaN
                NaN                NaN                NaN                NaN                NaN                NaN   0.0000000000E+00   0.0000000000E+00   0.0000000000E+00                NaN                NaN                NaN                NaN                NaN                NaN
                NaN                NaN                NaN                NaN                NaN                NaN   0.0000000000E+00   0.0000000000E+00   0.0000000000E+00                NaN                NaN                NaN                NaN                NaN                NaN
                NaN                NaN                NaN                NaN                NaN                NaN   0.0000000000E+00   0.0000000000E+00   0.0000000000E+00                NaN                NaN                NaN                NaN                NaN                NaN
     1     2     3     4     5     6     7     8
     2     9    10     3     6    11    12     7
