 VARIABLES = X,Y,Z,S11,S22,S33,S12,S13,S23
 ZONE, T="0.1000D+01" F=FEPOINT, I=   12 J=    2 ET=BRICK
   0.0000000000E+00   0.0000000000E+00   0.0000000000E+00   0.3057836620E+02   0.1761261616E-07   0.1761261425E-07   0.1925095901E-14  -0.7382617371E-14  -0.6510501189E-16
   0.1900000000E+01   0.1031212936E-15  -0.3571031036E-15   0.3057836620E+02   0.1761257937E-07   0.1761257937E-07   0.3596353758E-14  -0.2237306528E-14   0.2239827681E-15
   0.1900000000E+01   0.7291274386E+00   0.7216033010E-16   0.3057836620E+02   0.1761258030E-07   0.1761258100E-07   0.3703849064E-14   0.4250766975E-14  -0.9114781628E-15
   0.0000000000E+00   0.7291274386E+00   0.0000000000E+00   0.3057836620E+02   0.1761193448E-07   0.1761192770E-07   0.5238195209E-14   0.1525409507E-14  -0.1206089995E-14
   0.0000000000E+00  -0.8988167594E-17   0.7291274386E+00   0.3057836620E+02   0.1761202467E-07   0.1761203002E-07  -0.5873940486E-14  -0.7334320279E-14  -0.8692594016E-15
   0.1900000000E+01  -0.2952308945E-15   0.7291274386E+00   0.3057836620E+02   0.1761238514E-07   0.1761238539E-07  -0.2850609079E-14  -0.9746604851E-15   0.1537354409E-14
   0.1900000000E+01   0.7291274386E+00   0.7291274386E+00   0.3057836620E+02   0.1761272366E-07   0.1761272462E-07  -0.1010459055E-14   0.6358926266E-14   0.4018934778E-15
   0.0000000000E+00   0.7291274386E+00   0.7291274386E+00   0.3057836620E+02   0.1761218698E-07   0.1761218746E-07  -0.3405227358E-14   0.9429522122E-14  -0.2010244384E-14
   0.3800000000E+01   0.2106679470E-15  -0.5779124554E-15   0.3057836620E+02   0.1761283308E-07   0.1761283308E-07   0.2050391705E-14  -0.3524370957E-14  -0.3343143721E-16
   0.3800000000E+01   0.7291274386E+00   0.1097006567E-15   0.3057836620E+02   0.1761283261E-07   0.1761283226E-07  -0.1047716989E-14   0.5469883183E-15   0.1555533150E-15
   0.3800000000E+01  -0.4815579228E-15   0.7291274386E+00   0.3057836620E+02   0.1761234546E-07   0.1761234533E-07  -0.3045233751E-14  -0.1047375962E-14  -0.1889868969E-15
   0.3800000000E+01   0.7291274386E+00   0.7291274386E+00   0.3057836619E+02   0.1761217620E-07   0.1761217572E-07  -0.1833646831E-14  -0.3140805713E-14  -0.2144730042E-20
     1     2     3     4     5     6     7     8
     2     9    10     3     6    11    12     7
 VARIABLES = X,Y,Z,S11,S22,S33,S12,S13,S23
 ZONE, T="0.2000D+01" F=FEPOINT, I=   12 J=    2 ET=BRICK
   0.0000000000E+00   0.0000000000E+00   0.0000000000E+00   0.2983006032E+02   0.7483058978E+00   0.1761237156E-07   0.4724617395E+01   0.1109161511E-07   0.1756739184E-08
   0.1876607847E+01   0.2972254832E+00   0.3966769210E-09   0.2983006030E+02   0.7483058953E+00  -0.1079872702E-07   0.4724617404E+01  -0.5765452255E-14  -0.2080069791E-14
   0.1762547186E+01   0.1017376154E+01   0.3966772555E-09   0.2983006030E+02   0.7483058952E+00  -0.1079874454E-07   0.4724617403E+01   0.5467455995E-14   0.1349910145E-14
  -0.1140606608E+00   0.7201506699E+00   0.0000000000E+00   0.2983006031E+02   0.7483059045E+00   0.1761222196E-07   0.4724617416E+01   0.1109162155E-07   0.1756738617E-08
   0.1406059189E-17  -0.8877508336E-17   0.7291274386E+00   0.2983006032E+02   0.7483058977E+00   0.1761273808E-07   0.4724617395E+01  -0.1109162552E-07  -0.1756741778E-08
   0.1876607847E+01   0.2972254832E+00   0.7291274382E+00   0.2983006030E+02   0.7483058952E+00  -0.1079862261E-07   0.4724617403E+01  -0.4516863410E-14  -0.1889776601E-14
   0.1762547186E+01   0.1017376154E+01   0.7291274382E+00   0.2983006030E+02   0.7483058951E+00  -0.1079852538E-07   0.4724617403E+01   0.7552301226E-14   0.1666418490E-14
  -0.1140606608E+00   0.7201506699E+00   0.7291274386E+00   0.2983006031E+02   0.7483059044E+00   0.1761273190E-07   0.4724617415E+01  -0.1109161643E-07  -0.1756741932E-08
   0.3753215694E+01   0.5944509672E+00  -0.5779124554E-15   0.2983006031E+02   0.7483059046E+00   0.1761217477E-07   0.4724617416E+01  -0.1109162665E-07  -0.1756740863E-08
   0.3639155033E+01   0.1314601637E+01   0.1097006567E-15   0.2983006032E+02   0.7483058976E+00   0.1761252101E-07   0.4724617394E+01  -0.1109161998E-07  -0.1756738195E-08
   0.3753215694E+01   0.5944509672E+00   0.7291274386E+00   0.2983006031E+02   0.7483059045E+00   0.1761293939E-07   0.4724617415E+01   0.1109161662E-07   0.1756739552E-08
   0.3639155033E+01   0.1314601637E+01   0.7291274386E+00   0.2983006031E+02   0.7483058975E+00   0.1761220224E-07   0.4724617394E+01   0.1109162231E-07   0.1756742058E-08
     1     2     3     4     5     6     7     8
     2     9    10     3     6    11    12     7
 VARIABLES = X,Y,Z,S11,S22,S33,S12,S13,S23
 ZONE, T="0.3000D+01" F=FEPOINT, I=   12 J=    2 ET=BRICK
   0.0000000000E+00   0.0000000000E+00   0.0000000000E+00   0.2765838834E+02   0.2919978005E+01   0.7656666787E-07   0.8986761556E+01  -0.5520108057E-05  -0.1793592321E-05
   0.1807007311E+01   0.5871325058E+00  -0.2050234017E-06   0.2765832847E+02   0.2919904203E+01  -0.5815292592E-04   0.8986758650E+01   0.1390599284E-12  -0.4428911419E-12
   0.1581694682E+01   0.1280573474E+01  -0.2050234014E-06   0.2765832846E+02   0.2919904203E+01  -0.5815292599E-04   0.8986758649E+01  -0.1435980070E-12   0.4401356879E-12
  -0.2253127696E+00   0.6934414017E+00   0.0000000000E+00   0.2765839579E+02   0.2919970311E+01  -0.4122748000E-07   0.8986751126E+01  -0.5520108337E-05  -0.1793591438E-05
   0.2777496535E-17  -0.8548255360E-17   0.7291274386E+00   0.2765838833E+02   0.2919978005E+01   0.7656683374E-07   0.8986761555E+01   0.5520108046E-05   0.1793592316E-05
   0.1807007311E+01   0.5871325058E+00   0.7291276436E+00   0.2765832846E+02   0.2919904203E+01  -0.5815292591E-04   0.8986758649E+01  -0.1465624298E-12   0.4398458559E-12
   0.1581694682E+01   0.1280573474E+01   0.7291276436E+00   0.2765832846E+02   0.2919904202E+01  -0.5815292597E-04   0.8986758648E+01   0.1444178735E-12  -0.4405147486E-12
  -0.2253127696E+00   0.6934414017E+00   0.7291274386E+00   0.2765839578E+02   0.2919970311E+01  -0.4122810729E-07   0.8986751125E+01   0.5520108343E-05   0.1793591436E-05
   0.3614014762E+01   0.1174264579E+01  -0.5779124554E-15   0.2765839579E+02   0.2919970311E+01  -0.4122770192E-07   0.8986751127E+01   0.5520108331E-05   0.1793591435E-05
   0.3388701992E+01   0.1867705980E+01   0.1097006567E-15   0.2765838833E+02   0.2919978005E+01   0.7656697845E-07   0.8986761554E+01   0.5520108051E-05   0.1793592321E-05
   0.3614014762E+01   0.1174264579E+01   0.7291274386E+00   0.2765839578E+02   0.2919970311E+01  -0.4122786965E-07   0.8986751126E+01  -0.5520108342E-05  -0.1793591438E-05
   0.3388701992E+01   0.1867705980E+01   0.7291274386E+00   0.2765838833E+02   0.2919978004E+01   0.7656760387E-07   0.8986761553E+01  -0.5520108051E-05  -0.1793592317E-05
     1     2     3     4     5     6     7     8
     2     9    10     3     6    11    12     7
 VARIABLES = X,Y,Z,S11,S22,S33,S12,S13,S23
 ZONE, T="0.4000D+01" F=FEPOINT, I=   12 J=    2 ET=BRICK
   0.0000000000E+00   0.0000000000E+00   0.0000000000E+00   0.2427593430E+02   0.6302432040E+01   0.7654928520E-07   0.1236921274E+02  -0.5170031055E-05  -0.2634262917E-05
   0.1692912293E+01   0.8625821523E+00  -0.2049625215E-06   0.2427587501E+02   0.6302357708E+01  -0.5813072678E-04   0.1236921213E+02   0.2032078927E-12  -0.4170655926E-12
   0.1361895569E+01   0.1512239051E+01  -0.2049625213E-06   0.2427587501E+02   0.6302357708E+01  -0.5813072687E-04   0.1236921213E+02  -0.2095860477E-12   0.4123497221E-12
  -0.3310169302E+00   0.6496573047E+00   0.0000000000E+00   0.2427594460E+02   0.6302421497E+01  -0.4120923362E-07   0.1236920516E+02  -0.5170031471E-05  -0.2634262091E-05
   0.4080542698E-17  -0.8008515966E-17   0.7291274386E+00   0.2427593430E+02   0.6302432040E+01   0.7654821162E-07   0.1236921274E+02   0.5170031046E-05   0.2634262912E-05
   0.1692912293E+01   0.8625821523E+00   0.7291276435E+00   0.2427587501E+02   0.6302357708E+01  -0.5813072741E-04   0.1236921213E+02  -0.2168301326E-12   0.4098115207E-12
   0.1361895569E+01   0.1512239051E+01   0.7291276435E+00   0.2427587500E+02   0.6302357707E+01  -0.5813072703E-04   0.1236921213E+02   0.2123000952E-12  -0.4117198292E-12
  -0.3310169302E+00   0.6496573047E+00   0.7291274386E+00   0.2427594460E+02   0.6302421496E+01  -0.4120952622E-07   0.1236920516E+02   0.5170031475E-05   0.2634262088E-05
   0.3385824792E+01   0.1725163899E+01  -0.5779124554E-15   0.2427594460E+02   0.6302421497E+01  -0.4120966719E-07   0.1236920516E+02   0.5170031463E-05   0.2634262086E-05
   0.3054807862E+01   0.2374821204E+01   0.1097006567E-15   0.2427593430E+02   0.6302432039E+01   0.7654891467E-07   0.1236921274E+02   0.5170031051E-05   0.2634262917E-05
   0.3385824792E+01   0.1725163899E+01   0.7291274386E+00   0.2427594460E+02   0.6302421496E+01  -0.4120824158E-07   0.1236920516E+02  -0.5170031475E-05  -0.2634262091E-05
   0.3054807862E+01   0.2374821204E+01   0.7291274386E+00   0.2427593429E+02   0.6302432039E+01   0.7654929384E-07   0.1236921274E+02  -0.5170031049E-05  -0.2634262912E-05
     1     2     3     4     5     6     7     8
     2     9    10     3     6    11    12     7
 VARIABLES = X,Y,Z,S11,S22,S33,S12,S13,S23
 ZONE, T="0.5000D+01" F=FEPOINT, I=   12 J=    2 ET=BRICK
   0.0000000000E+00   0.0000000000E+00   0.0000000000E+00   0.2001379445E+02   0.1056457189E+02   0.7655837307E-07   0.1454087920E+02  -0.4694967006E-05  -0.3411093770E-05
   0.1537132156E+01   0.1116792164E+01  -0.2049920861E-06   0.2001373497E+02   0.1056449773E+02  -0.5814156507E-04   0.1454088095E+02   0.2683314737E-12  -0.3811094695E-12
   0.1108562068E+01   0.1706668284E+01  -0.2049920858E-06   0.2001373497E+02   0.1056449773E+02  -0.5814156455E-04   0.1454088094E+02  -0.2679314536E-12   0.3782579367E-12
  -0.4285703554E+00   0.5898764889E+00   0.0000000000E+00   0.2001380658E+02   0.1056455952E+02  -0.4121863994E-07   0.1454087522E+02  -0.4694967545E-05  -0.3411093018E-05
   0.5283112357E-17  -0.7271580332E-17   0.7291274386E+00   0.2001379445E+02   0.1056457189E+02   0.7655818067E-07   0.1454087920E+02   0.4694966995E-05   0.3411093761E-05
   0.1537132156E+01   0.1116792164E+01   0.7291276436E+00   0.2001373497E+02   0.1056449773E+02  -0.5814156442E-04   0.1454088094E+02  -0.2763643418E-12   0.3705362765E-12
   0.1108562068E+01   0.1706668284E+01   0.7291276436E+00   0.2001373496E+02   0.1056449772E+02  -0.5814156470E-04   0.1454088094E+02   0.2775141181E-12  -0.3694498713E-12
  -0.4285703554E+00   0.5898764889E+00   0.7291274386E+00   0.2001380658E+02   0.1056455951E+02  -0.4121844317E-07   0.1454087521E+02   0.4694967551E-05   0.3411093017E-05
   0.3074264579E+01   0.2233583959E+01  -0.5779124554E-15   0.2001380658E+02   0.1056455952E+02  -0.4121853434E-07   0.1454087522E+02   0.4694967539E-05   0.3411093011E-05
   0.2645694223E+01   0.2823460448E+01   0.1097006567E-15   0.2001379445E+02   0.1056457189E+02   0.7655788807E-07   0.1454087920E+02   0.4694966999E-05   0.3411093768E-05
   0.3074264579E+01   0.2233583959E+01   0.7291274386E+00   0.2001380658E+02   0.1056455952E+02  -0.4121800367E-07   0.1454087521E+02  -0.4694967548E-05  -0.3411093019E-05
   0.2645694223E+01   0.2823460448E+01   0.7291274386E+00   0.2001379444E+02   0.1056457189E+02   0.7655760475E-07   0.1454087920E+02  -0.4694967002E-05  -0.3411093765E-05
     1     2     3     4     5     6     7     8
     2     9    10     3     6    11    12     7
 VARIABLES = X,Y,Z,S11,S22,S33,S12,S13,S23
 ZONE, T="0.6000D+01" F=FEPOINT, I=   12 J=    2 ET=BRICK
   0.0000000000E+00   0.0000000000E+00   0.0000000000E+00   0.1528917673E+02   0.1528918961E+02   0.7655789275E-07   0.1528918309E+02  -0.4103551183E-05  -0.4103551839E-05
   0.1343502723E+01   0.1343503045E+01  -0.2049920682E-06   0.1528911635E+02   0.1528911635E+02  -0.5814155800E-04   0.1528918702E+02   0.3263369612E-12  -0.3303434520E-12
   0.8279320890E+00   0.1859073679E+01  -0.2049920680E-06   0.1528911635E+02   0.1528911634E+02  -0.5814155790E-04   0.1528918702E+02  -0.3276275403E-12   0.3265071486E-12
  -0.5155709562E+00   0.5155709562E+00   0.0000000000E+00   0.1528918949E+02   0.1528917661E+02  -0.4121782485E-07   0.1528918309E+02  -0.4103551834E-05  -0.4103551181E-05
   0.6355594256E-17  -0.6355594256E-17   0.7291274386E+00   0.1528917673E+02   0.1528918961E+02   0.7655746299E-07   0.1528918309E+02   0.4103551175E-05   0.4103551829E-05
   0.1343502723E+01   0.1343503045E+01   0.7291276436E+00   0.1528911635E+02   0.1528911634E+02  -0.5814155797E-04   0.1528918702E+02  -0.3290826981E-12   0.3266853171E-12
   0.8279320890E+00   0.1859073679E+01   0.7291276436E+00   0.1528911634E+02   0.1528911634E+02  -0.5814155833E-04   0.1528918702E+02   0.3282233431E-12  -0.3268219182E-12
  -0.5155709562E+00   0.5155709562E+00   0.7291274386E+00   0.1528918949E+02   0.1528917660E+02  -0.4121822782E-07   0.1528918309E+02   0.4103551839E-05   0.4103551180E-05
   0.2687005769E+01   0.2687005769E+01  -0.5779124554E-15   0.1528918949E+02   0.1528917661E+02  -0.4121844571E-07   0.1528918309E+02   0.4103551830E-05   0.4103551172E-05
   0.2171434812E+01   0.3202576725E+01   0.1097006567E-15   0.1528917672E+02   0.1528918961E+02   0.7655723425E-07   0.1528918309E+02   0.4103551178E-05   0.4103551837E-05
   0.2687005769E+01   0.2687005769E+01   0.7291274386E+00   0.1528918949E+02   0.1528917660E+02  -0.4121751411E-07   0.1528918309E+02  -0.4103551835E-05  -0.4103551183E-05
   0.2171434812E+01   0.3202576725E+01   0.7291274386E+00   0.1528917672E+02   0.1528918961E+02   0.7655838296E-07   0.1528918309E+02  -0.4103551180E-05  -0.4103551832E-05
     1     2     3     4     5     6     7     8
     2     9    10     3     6    11    12     7
 VARIABLES = X,Y,Z,S11,S22,S33,S12,S13,S23
 ZONE, T="0.7000D+01" F=FEPOINT, I=   12 J=    2 ET=BRICK
   0.0000000000E+00   0.0000000000E+00   0.0000000000E+00   0.1056455964E+02   0.2001380671E+02   0.7655837637E-07   0.1454087522E+02  -0.3411092793E-05  -0.4694967238E-05
   0.1116791795E+01   0.1537132423E+01  -0.2049920725E-06   0.1056449773E+02   0.2001373497E+02  -0.5814155929E-04   0.1454088095E+02   0.3732999585E-12  -0.2730589275E-12
   0.5269156746E+00   0.1965702511E+01  -0.2049920724E-06   0.1056449773E+02   0.2001373496E+02  -0.5814155939E-04   0.1454088094E+02  -0.3732969391E-12   0.2738651062E-12
  -0.5898764889E+00   0.4285703554E+00   0.0000000000E+00   0.1056457177E+02   0.2001379433E+02  -0.4121787484E-07   0.1454087920E+02  -0.3411093541E-05  -0.4694966694E-05
   0.7271580332E-17  -0.5283112357E-17   0.7291274386E+00   0.1056455964E+02   0.2001380670E+02   0.7655805541E-07   0.1454087522E+02   0.3411092790E-05   0.4694967232E-05
   0.1116791795E+01   0.1537132423E+01   0.7291276436E+00   0.1056449773E+02   0.2001373496E+02  -0.5814155960E-04   0.1454088094E+02  -0.3765227995E-12   0.2731256048E-12
   0.5269156746E+00   0.1965702511E+01   0.7291276436E+00   0.1056449773E+02   0.2001373496E+02  -0.5814155982E-04   0.1454088094E+02   0.3769921239E-12  -0.2690476558E-12
  -0.5898764889E+00   0.4285703554E+00   0.7291274386E+00   0.1056457177E+02   0.2001379432E+02  -0.4121812077E-07   0.1454087920E+02   0.3411093544E-05   0.4694966691E-05
   0.2233583959E+01   0.3074264579E+01  -0.5779124554E-15   0.1056457177E+02   0.2001379433E+02  -0.4121821217E-07   0.1454087920E+02   0.3411093539E-05   0.4694966674E-05
   0.1643707470E+01   0.3502834934E+01   0.1097006567E-15   0.1056455963E+02   0.2001380670E+02   0.7655692874E-07   0.1454087522E+02   0.3411092790E-05   0.4694967239E-05
   0.2233583959E+01   0.3074264579E+01   0.7291274386E+00   0.1056457177E+02   0.2001379432E+02  -0.4121739702E-07   0.1454087920E+02  -0.3411093541E-05  -0.4694966704E-05
   0.1643707470E+01   0.3502834934E+01   0.7291274386E+00   0.1056455963E+02   0.2001380670E+02   0.7655859119E-07   0.1454087522E+02  -0.3411092792E-05  -0.4694967232E-05
     1     2     3     4     5     6     7     8
     2     9    10     3     6    11    12     7
 VARIABLES = X,Y,Z,S11,S22,S33,S12,S13,S23
 ZONE, T="0.8000D+01" F=FEPOINT, I=   12 J=    2 ET=BRICK
   0.0000000000E+00   0.0000000000E+00   0.0000000000E+00   0.6302421616E+01   0.2427594473E+02   0.7655835005E-07   0.1236920517E+02  -0.2634641896E-05  -0.5170776883E-05
   0.8625817467E+00   0.1692912499E+01  -0.2049920727E-06   0.6302357698E+01   0.2427587500E+02  -0.5814155958E-04   0.1236921213E+02   0.4112448188E-12  -0.2118313677E-12
   0.2129248475E+00   0.2023929223E+01  -0.2049920722E-06   0.6302357697E+01   0.2427587499E+02  -0.5814155993E-04   0.1236921213E+02  -0.4126296307E-12   0.2164456117E-12
  -0.6496573047E+00   0.3310169302E+00   0.0000000000E+00   0.6302431921E+01   0.2427593418E+02  -0.4121780231E-07   0.1236921274E+02  -0.2634642714E-05  -0.5170776452E-05
   0.8008515966E-17  -0.4080542698E-17   0.7291274386E+00   0.6302421615E+01   0.2427594472E+02   0.7655849270E-07   0.1236920516E+02   0.2634641888E-05   0.5170776866E-05
   0.8625817467E+00   0.1692912499E+01   0.7291276436E+00   0.6302357697E+01   0.2427587499E+02  -0.5814155995E-04   0.1236921213E+02  -0.4138642041E-12   0.2098599218E-12
   0.2129248475E+00   0.2023929223E+01   0.7291276436E+00   0.6302357696E+01   0.2427587499E+02  -0.5814155950E-04   0.1236921213E+02   0.4142766589E-12  -0.2028826116E-12
  -0.6496573047E+00   0.3310169302E+00   0.7291274386E+00   0.6302431921E+01   0.2427593417E+02  -0.4121785404E-07   0.1236921274E+02   0.2634642721E-05   0.5170776456E-05
   0.1725163899E+01   0.3385824792E+01  -0.5779124554E-15   0.6302431922E+01   0.2427593418E+02  -0.4121836134E-07   0.1236921274E+02   0.2634642720E-05   0.5170776435E-05
   0.1075506594E+01   0.3716841722E+01   0.1097006567E-15   0.6302421615E+01   0.2427594472E+02   0.7655732532E-07   0.1236920516E+02   0.2634641886E-05   0.5170776873E-05
   0.1725163899E+01   0.3385824792E+01   0.7291274386E+00   0.6302431921E+01   0.2427593417E+02  -0.4121695314E-07   0.1236921274E+02  -0.2634642713E-05  -0.5170776470E-05
   0.1075506594E+01   0.3716841722E+01   0.7291274386E+00   0.6302421614E+01   0.2427594472E+02   0.7655933509E-07   0.1236920516E+02  -0.2634641894E-05  -0.5170776873E-05
     1     2     3     4     5     6     7     8
     2     9    10     3     6    11    12     7
 VARIABLES = X,Y,Z,S11,S22,S33,S12,S13,S23
 ZONE, T="0.9000D+01" F=FEPOINT, I=   12 J=    2 ET=BRICK
   0.0000000000E+00   0.0000000000E+00   0.0000000000E+00   0.2919970430E+01   0.2765839591E+02   0.7655785475E-07   0.8986751130E+01  -0.1793317366E-05  -0.5519264833E-05
   0.5871320729E+00   0.1807007451E+01  -0.2049920727E-06   0.2919904218E+01   0.2765832848E+02  -0.5814155999E-04   0.8986758651E+01   0.4407954609E-12  -0.1458476283E-12
  -0.1063088959E+00   0.2032320080E+01  -0.2049920723E-06   0.2919904217E+01   0.2765832847E+02  -0.5814155966E-04   0.8986758650E+01  -0.4398959715E-12   0.1500599316E-12
  -0.6934414017E+00   0.2253127696E+00   0.0000000000E+00   0.2919977886E+01   0.2765838821E+02  -0.4121787468E-07   0.8986761552E+01  -0.1793318243E-05  -0.5519264538E-05
   0.8548255360E-17  -0.2777496535E-17   0.7291274386E+00   0.2919970430E+01   0.2765839591E+02   0.7655860782E-07   0.8986751129E+01   0.1793317359E-05   0.5519264811E-05
   0.5871320729E+00   0.1807007451E+01   0.7291276436E+00   0.2919904217E+01   0.2765832847E+02  -0.5814156029E-04   0.8986758650E+01  -0.4422402635E-12   0.1422647523E-12
  -0.1063088959E+00   0.2032320080E+01   0.7291276436E+00   0.2919904217E+01   0.2765832847E+02  -0.5814155977E-04   0.8986758649E+01   0.4403089712E-12  -0.1340608204E-12
  -0.6934414017E+00   0.2253127696E+00   0.7291274386E+00   0.2919977886E+01   0.2765838821E+02  -0.4121724465E-07   0.8986761551E+01   0.1793318248E-05   0.5519264541E-05
   0.1174264579E+01   0.3614014762E+01  -0.5779124554E-15   0.2919977886E+01   0.2765838821E+02  -0.4121801196E-07   0.8986761553E+01   0.1793318250E-05   0.5519264512E-05
   0.4808231769E+00   0.3839327532E+01   0.1097006567E-15   0.2919970430E+01   0.2765839591E+02   0.7655671406E-07   0.8986751128E+01   0.1793317359E-05   0.5519264825E-05
   0.1174264579E+01   0.3614014762E+01   0.7291274386E+00   0.2919977886E+01   0.2765838821E+02  -0.4121692067E-07   0.8986761552E+01  -0.1793318236E-05  -0.5519264557E-05
   0.4808231769E+00   0.3839327532E+01   0.7291274386E+00   0.2919970429E+01   0.2765839590E+02   0.7655951471E-07   0.8986751127E+01  -0.1793317367E-05  -0.5519264823E-05
     1     2     3     4     5     6     7     8
     2     9    10     3     6    11    12     7
 VARIABLES = X,Y,Z,S11,S22,S33,S12,S13,S23
 ZONE, T="0.1000D+02" F=FEPOINT, I=   12 J=    2 ET=BRICK
   0.0000000000E+00   0.0000000000E+00   0.0000000000E+00   0.7483039691E+00   0.2983006237E+02   0.7655856844E-07   0.4724611278E+01  -0.9078354119E-06  -0.5731850170E-05
   0.2972252588E+00   0.1876607883E+01  -0.2049920728E-06   0.7482354023E+00   0.2982999729E+02  -0.5814155953E-04   0.4724618621E+01   0.4562270547E-12  -0.7559984374E-13
  -0.4229249615E+00   0.1990668472E+01  -0.2049920722E-06   0.7482354022E+00   0.2982999729E+02  -0.5814155952E-04   0.4724618620E+01  -0.4549998696E-12   0.8796588521E-13
  -0.7201506699E+00   0.1140606608E+00   0.0000000000E+00   0.7483078333E+00   0.2983005826E+02  -0.4121878157E-07   0.4724623533E+01  -0.9078363238E-06  -0.5731850012E-05
   0.8877508336E-17  -0.1406059189E-17   0.7291274386E+00   0.7483039690E+00   0.2983006237E+02   0.7655800816E-07   0.4724611278E+01   0.9078354083E-06   0.5731850141E-05
   0.2972252588E+00   0.1876607883E+01   0.7291276436E+00   0.7482354022E+00   0.2982999729E+02  -0.5814156054E-04   0.4724618620E+01  -0.4607455742E-12   0.7078624195E-13
  -0.4229249615E+00   0.1990668472E+01   0.7291276436E+00   0.7482354021E+00   0.2982999729E+02  -0.5814155978E-04   0.4724618620E+01   0.4590768219E-12  -0.5500383410E-13
  -0.7201506699E+00   0.1140606608E+00   0.7291274386E+00   0.7483078332E+00   0.2983005826E+02  -0.4121689689E-07   0.4724623532E+01   0.9078363286E-06   0.5731850017E-05
   0.5944509672E+00   0.3753215694E+01  -0.5779124554E-15   0.7483078333E+00   0.2983005827E+02  -0.4121815232E-07   0.4724623533E+01   0.9078363368E-06   0.5731849989E-05
  -0.1256997027E+00   0.3867276355E+01   0.1097006567E-15   0.7483039690E+00   0.2983006237E+02   0.7655731582E-07   0.4724611278E+01   0.9078354053E-06   0.5731850156E-05
   0.5944509672E+00   0.3753215694E+01   0.7291274386E+00   0.7483078332E+00   0.2983005826E+02  -0.4121741202E-07   0.4724623532E+01  -0.9078363128E-06  -0.5731850029E-05
  -0.1256997027E+00   0.3867276355E+01   0.7291274386E+00   0.7483039689E+00   0.2983006236E+02   0.7655949109E-07   0.4724611277E+01  -0.9078354144E-06  -0.5731850158E-05
     1     2     3     4     5     6     7     8
     2     9    10     3     6    11    12     7
 VARIABLES = X,Y,Z,S11,S22,S33,S12,S13,S23
 ZONE, T="0.1100D+02" F=FEPOINT, I=   12 J=    2 ET=BRICK
   0.0000000000E+00   0.0000000000E+00   0.0000000000E+00   0.7655778468E-07   0.3057836627E+02   0.7655830618E-07  -0.6443235072E-05   0.4635074619E-12  -0.5803298333E-05
  -0.2275967972E-06   0.1900000000E+01  -0.2049920729E-06  -0.7067388796E-04   0.3057830337E+02  -0.5814155955E-04   0.1066215180E-08   0.4614317938E-12  -0.3782526011E-14
  -0.7291272110E+00   0.1900000000E+01  -0.2049920722E-06  -0.7067388821E-04   0.3057830336E+02  -0.5814155980E-04   0.1066229981E-08  -0.4654537588E-12   0.1165043663E-13
  -0.7291274386E+00   0.0000000000E+00   0.0000000000E+00  -0.4121859415E-07   0.3057836614E+02  -0.4121807298E-07   0.6443235074E-05  -0.4618352333E-12  -0.5803298314E-05
   0.8988167594E-17  -0.1540743956E-32   0.7291274386E+00   0.7655796587E-07   0.3057836626E+02   0.7655848987E-07  -0.6443235074E-05  -0.4625738387E-12   0.5803298301E-05
  -0.2275967967E-06   0.1900000000E+01   0.7291276436E+00  -0.7067388876E-04   0.3057830336E+02  -0.5814156035E-04   0.1066235596E-08  -0.4658548036E-12  -0.2644420639E-14
  -0.7291272110E+00   0.1900000000E+01   0.7291276436E+00  -0.7067388835E-04   0.3057830336E+02  -0.5814155994E-04   0.1066222110E-08   0.4610309309E-12   0.1343383555E-13
  -0.7291274386E+00   0.1110223025E-15   0.7291274386E+00  -0.4121774437E-07   0.3057836613E+02  -0.4121722070E-07   0.6443235075E-05   0.4658546774E-12   0.5803298322E-05
  -0.1332267630E-14   0.3800000000E+01  -0.5779124554E-15  -0.4121835229E-07   0.3057836614E+02  -0.4121781118E-07   0.6443235058E-05   0.4793685815E-12   0.5803298296E-05
  -0.7291274386E+00   0.3800000000E+01   0.1097006567E-15   0.7655682764E-07   0.3057836626E+02   0.7655736838E-07  -0.6443235056E-05  -0.4652061618E-12   0.5803298313E-05
   0.1554312234E-14   0.3800000000E+01   0.7291274386E+00  -0.4121738402E-07   0.3057836614E+02  -0.4121687793E-07   0.6443235091E-05  -0.4473614904E-12  -0.5803298335E-05
  -0.7291274386E+00   0.3800000000E+01   0.7291274386E+00   0.7655845125E-07   0.3057836626E+02   0.7655895697E-07  -0.6443235083E-05   0.4618349759E-12  -0.5803298318E-05
     1     2     3     4     5     6     7     8
     2     9    10     3     6    11    12     7
