 VARIABLES = X,Y,Z,S11,S22,S33,S12,S13,S23
 ZONE, T="0.1000D+01" F=FEPOINT, I=   12 J=    2 ET=BRICK
   0.0000000000E+00   0.0000000000E+00   0.0000000000E+00   0.3146507687E+01  -0.7012137985E+00   0.5507245679E+01  -0.5271780782E+00  -0.2337172862E+02  -0.4663632744E+01
   0.1150000000E+01   0.0000000000E+00   0.6920723598E-16   0.1072056799E+02   0.3407732990E+01  -0.5797102059E+00   0.1054356201E+01  -0.9117138834E+01   0.1843366108E+01
   0.1150000000E+01   0.9332047027E+00   0.9601923213E-16   0.3500356905E+01  -0.3073515461E+01  -0.5797100570E+00   0.5170371912E-01   0.2108712124E+01   0.1370577852E+01
   0.0000000000E+00   0.9332047027E+00   0.1427288899E-15   0.6756613073E+01  -0.2205193036E+01  -0.4927535572E+01  -0.2585185846E-01   0.6429543762E+01   0.1327985942E+02
   0.0000000000E+00   0.0000000000E+00   0.9332047027E+00   0.1039138241E+01   0.4643051928E+01  -0.9275361459E+01   0.1343797088E+01   0.1183058425E+02   0.7878818941E+01
   0.1150000000E+01   0.0000000000E+00   0.9332047027E+00   0.4500524545E+01  -0.3342174517E+00  -0.2318840426E+01  -0.2687594290E+01   0.4269128336E+01  -0.7898383597E+00
   0.1150000000E+01   0.9332047027E+00   0.9332047027E+00   0.7242307248E+01  -0.3342176359E+00   0.2898550533E+01   0.1054356201E+01  -0.4754742200E+00  -0.6798298506E+01
   0.0000000000E+00   0.9332047027E+00   0.9332047027E+00  -0.3317530523E+00  -0.5311487108E+01   0.8985506418E+01  -0.5271780781E+00  -0.3504212630E+01  -0.2453114873E+02
   0.2300000000E+01   0.0000000000E+00   0.1052782669E-15   0.1829462829E+02   0.7516679779E+01  -0.6666666090E+01   0.2635890481E+01   0.5137450945E+01   0.8350364959E+01
   0.2300000000E+01   0.9332047027E+00   0.1230901608E-15   0.2441007379E+00  -0.3941837885E+01   0.3768115458E+01   0.1292592967E+00  -0.2212119513E+01  -0.1053870372E+02
   0.2300000000E+01   0.0000000000E+00   0.9332047027E+00   0.7961910849E+01  -0.5311486831E+01   0.4637680605E+01  -0.6718985667E+01  -0.3292327572E+01  -0.9458495660E+01
   0.2300000000E+01   0.9332047027E+00   0.9332047027E+00   0.1481636755E+02   0.4643051835E+01  -0.3188405351E+01   0.2635890480E+01   0.2553264190E+01   0.1093455171E+02
     1     2     3     4     5     6     7     8
     2     9    10     3     6    11    12     7
 VARIABLES = X,Y,Z,S11,S22,S33,S12,S13,S23
 ZONE, T="0.2000D+01" F=FEPOINT, I=   12 J=    2 ET=BRICK
   0.0000000000E+00   0.0000000000E+00   0.0000000000E+00   0.1421395424E+02   0.9009080036E+01  -0.4256286332E+00   0.4465819298E+00   0.1425628484E+02  -0.2273906688E+01
   0.1300000000E+01   0.0000000000E+00   0.1317035768E-15   0.7069068617E+01   0.8196924678E+01   0.8512573028E+00   0.1786327734E+00   0.5702513984E+01   0.4547813569E+01
   0.1300000000E+01   0.8783927377E+00   0.1440757486E-15   0.1508819925E+02  -0.9840078397E+01   0.2851257057E+01  -0.3572655621E+00  -0.4851256795E+01  -0.2541855867E+01
   0.0000000000E+00   0.8783927377E+00   0.2478748425E-15  -0.1795609773E+01  -0.1633731832E+01  -0.1425628467E+01  -0.8931638978E+00  -0.1212814188E+02   0.1270927879E+01
   0.0000000000E+00   0.0000000000E+00   0.8783927377E+00   0.2936440817E+01  -0.9504539595E+01  -0.2871856310E+00  -0.8931638978E+00  -0.1212814188E+02   0.2270927799E+01
   0.1300000000E+01   0.0000000000E+00   0.8783927377E+00   0.1762409756E+02  -0.6098462089E+01   0.5743712866E+00  -0.3572655621E+00  -0.4851256795E+01  -0.4541855792E+01
   0.1300000000E+01   0.8783927377E+00   0.8783927377E+00   0.1281068485E+02   0.5920038908E+01  -0.3425628392E+01   0.7145311548E+00   0.3425628213E+01   0.2806826180E+01
   0.0000000000E+00   0.8783927377E+00   0.8783927377E+00   0.1134314624E+02   0.3316865659E+01   0.1712814123E+01   0.1786327872E+01   0.8564070461E+01  -0.1403413030E+01
   0.2600000000E+01   0.0000000000E+00   0.1573984423E-15  -0.7581700367E-01   0.7384769321E+01   0.2128143239E+01  -0.8931638291E-01  -0.2851256870E+01   0.1136953382E+02
   0.2600000000E+01   0.8783927377E+00   0.9007594162E-16   0.3197200827E+02  -0.1804642496E+02   0.7128142580E+01   0.1786327734E+00   0.2425628294E+01  -0.6354639612E+01
   0.2600000000E+01   0.0000000000E+00   0.8783927377E+00   0.3231175429E+02  -0.2692384583E+01   0.1435928204E+01   0.1786327734E+00   0.2425628294E+01  -0.1135463938E+02
   0.2600000000E+01   0.8783927377E+00   0.8783927377E+00   0.1427822345E+02   0.8523212157E+01  -0.8564070907E+01  -0.3572655621E+00  -0.1712814034E+01   0.7017065390E+01
     1     2     3     4     5     6     7     8
     2     9    10     3     6    11    12     7
 VARIABLES = X,Y,Z,S11,S22,S33,S12,S13,S23
 ZONE, T="0.3000D+01" F=FEPOINT, I=   12 J=    2 ET=BRICK
   0.0000000000E+00   0.0000000000E+00   0.0000000000E+00   0.1053948545E+02   0.3601448237E-11   0.3605173873E-11   0.6673939002E-19  -0.2035595128E-15                NaN
   0.1450000000E+01   0.0000000000E+00  -0.4154482508E-16   0.2107897059E+02   0.8007448256E-11   0.8005234196E-11   0.1381770969E-14   0.3211912010E-14                NaN
   0.1450000000E+01   0.8323885354E+00  -0.1847142501E-15   0.2107897059E+02   0.7837101871E-11   0.7839424072E-11   0.2585379801E-14  -0.4325834236E-15                NaN
   0.0000000000E+00   0.8323885354E+00  -0.4671500053E-16   0.1053948544E+02   0.3641444723E-11   0.3644117529E-11   0.4212856594E-14  -0.2085005311E-14                NaN
   0.0000000000E+00   0.0000000000E+00   0.8323885354E+00   0.1053948544E+02   0.4134133456E-11   0.4133930832E-11  -0.5687118713E-19  -0.3911743493E-14                NaN
   0.1450000000E+01   0.0000000000E+00   0.8323885354E+00   0.2107897059E+02   0.7766715600E-11   0.7763286942E-11  -0.1842293158E-14   0.3933049295E-15                NaN
   0.1450000000E+01   0.8323885354E+00   0.8323885354E+00   0.2107897059E+02   0.8394197739E-11   0.8395304453E-11  -0.3045997422E-14  -0.2227144090E-15                NaN
   0.0000000000E+00   0.8323885354E+00   0.8323885354E+00   0.1053948544E+02   0.3988994166E-11   0.3987739156E-11  -0.1203744400E-14   0.1404355406E-14                NaN
   0.2900000000E+01   0.0000000000E+00  -0.1513515833E-15   0.3161845574E+02   0.1182671532E-10   0.1182520349E-10   0.1382409792E-14   0.2022202108E-14                NaN
   0.2900000000E+01   0.8323885354E+00  -0.1597765395E-15   0.3161845573E+02   0.1169730037E-10   0.1169927159E-10  -0.4231623979E-15  -0.1624676183E-15                NaN
   0.2900000000E+01   0.0000000000E+00   0.8323885354E+00   0.3161845573E+02   0.1173603177E-10   0.1172937670E-10  -0.1842719510E-14   0.9317192740E-16                NaN
   0.2900000000E+01   0.8323885354E+00   0.8323885354E+00   0.3161845573E+02   0.1221931148E-10   0.1221613950E-10  -0.3046440510E-14  -0.3232090306E-14                NaN
     1     2     3     4     5     6     7     8
     2     9    10     3     6    11    12     7
 VARIABLES = X,Y,Z,S11,S22,S33,S12,S13,S23
 ZONE, T="0.4000D+01" F=FEPOINT, I=   12 J=    2 ET=BRICK
   0.0000000000E+00   0.0000000000E+00   0.0000000000E+00   0.1442150214E+02   0.2558582489E-04   0.2558582489E-04   0.6734809358E-19  -0.4195309079E-14                NaN
   0.1600000000E+01   0.0000000000E+00  -0.3460398133E-15   0.2884300387E+02   0.5117164946E-04   0.5117164946E-04  -0.2712291187E-18   0.2372220421E-14                NaN
   0.1600000000E+01   0.7930829933E+00  -0.3230203813E-15   0.2884300387E+02   0.5117164950E-04   0.5117164950E-04  -0.1149764073E-13  -0.3864821915E-13                NaN
   0.0000000000E+00   0.7930829933E+00   0.1651108924E-14   0.1442150214E+02   0.2558582491E-04   0.2558582491E-04  -0.3537504329E-14  -0.2390946844E-13                NaN
   0.0000000000E+00   0.0000000000E+00   0.7930829933E+00   0.1442150214E+02   0.2558582514E-04   0.2558582515E-04   0.5668819635E-19  -0.3980096036E-14                NaN
   0.1600000000E+01   0.0000000000E+00   0.7930829933E+00   0.2884300387E+02   0.5117164947E-04   0.5117164947E-04  -0.2630409113E-14   0.3887587535E-14                NaN
   0.1600000000E+01   0.7930829933E+00   0.7930829933E+00   0.2884300387E+02   0.5117164930E-04   0.5117164930E-04   0.1129930130E-13  -0.3743568622E-13                NaN
   0.0000000000E+00   0.7930829933E+00   0.7930829933E+00   0.1442150214E+02   0.2558582506E-04   0.2558582507E-04   0.6301671252E-14  -0.2111569115E-13                NaN
   0.3200000000E+01   0.0000000000E+00  -0.6768739724E-15   0.4326450560E+02   0.7675747315E-04   0.7675747316E-04   0.2327321911E-18  -0.1579241988E-14                NaN
   0.3200000000E+01   0.7930829933E+00  -0.2216863295E-14   0.4326450560E+02   0.7675747346E-04   0.7675747346E-04  -0.1945693459E-13  -0.6127971564E-13                NaN
   0.3200000000E+01   0.0000000000E+00   0.7930829933E+00   0.4326450560E+02   0.7675747520E-04   0.7675747519E-04  -0.2629933211E-14   0.1236279198E-14                NaN
   0.3200000000E+01   0.7930829933E+00   0.7930829933E+00   0.4326450559E+02   0.7675747402E-04   0.7675747401E-04   0.1892787305E-13  -0.6164842707E-13                NaN
     1     2     3     4     5     6     7     8
     2     9    10     3     6    11    12     7
 VARIABLES = X,Y,Z,S11,S22,S33,S12,S13,S23
 ZONE, T="0.5000D+01" F=FEPOINT, I=   12 J=    2 ET=BRICK
   0.0000000000E+00   0.0000000000E+00   0.0000000000E+00   0.1854704596E+02   0.1120611872E-04   0.1120611872E-04   0.7153172247E-19  -0.3735811482E-16                NaN
   0.1750000000E+01   0.0000000000E+00  -0.2644011769E-16   0.3709409138E+02   0.2241223717E-04   0.2241223717E-04  -0.1676470472E-14  -0.1306004073E-14                NaN
   0.1750000000E+01   0.7590130018E+00  -0.1794409130E-16   0.3709409138E+02   0.2241223697E-04   0.2241223697E-04  -0.1917738888E-14   0.4270265962E-14                NaN
   0.0000000000E+00   0.7590130018E+00  -0.1835177111E-15   0.1854704595E+02   0.1120611865E-04   0.1120611865E-04  -0.1328030322E-14   0.2187583064E-14                NaN
   0.0000000000E+00   0.0000000000E+00   0.7590130018E+00   0.1854704595E+02   0.1120611868E-04   0.1120611868E-04  -0.2142465180E-18   0.8455204731E-15                NaN
   0.1750000000E+01   0.0000000000E+00   0.7590130018E+00   0.3709409138E+02   0.2241223690E-04   0.2241223690E-04  -0.1675819778E-14   0.2656572193E-14                NaN
   0.1750000000E+01   0.7590130018E+00   0.7590130018E+00   0.3709409138E+02   0.2241223704E-04   0.2241223704E-04  -0.1193178756E-14   0.1932629746E-14                NaN
   0.0000000000E+00   0.7590130018E+00   0.7590130018E+00   0.1854704595E+02   0.1120611866E-04   0.1120611866E-04  -0.2418769770E-15   0.4831183761E-15                NaN
   0.3500000000E+01   0.0000000000E+00  -0.1235901346E-15   0.5564113681E+02   0.3361835615E-04   0.3361835616E-04  -0.1675681154E-14  -0.2573647015E-14                NaN
   0.3500000000E+01   0.7590130018E+00   0.1415672663E-15   0.5564113680E+02   0.3361835514E-04   0.3361835514E-04  -0.8301161329E-15   0.6350882621E-14                NaN
   0.3500000000E+01   0.0000000000E+00   0.7590130018E+00   0.5564113680E+02   0.3361835565E-04   0.3361835565E-04  -0.1676242468E-14   0.4468626929E-14                NaN
   0.3500000000E+01   0.7590130018E+00   0.7590130018E+00   0.5564113680E+02   0.3361835528E-04   0.3361835528E-04  -0.4692976923E-15   0.3380074877E-14                NaN
     1     2     3     4     5     6     7     8
     2     9    10     3     6    11    12     7
 VARIABLES = X,Y,Z,S11,S22,S33,S12,S13,S23
 ZONE, T="0.6000D+01" F=FEPOINT, I=   12 J=    2 ET=BRICK
   0.0000000000E+00   0.0000000000E+00   0.0000000000E+00   0.2293378013E+02   0.5293223587E-05   0.5293223583E-05  -0.1716212705E-18  -0.3284575623E-14                NaN
   0.1900000000E+01   0.0000000000E+00  -0.1477656725E-15   0.4586755960E+02   0.1058644803E-04   0.1058644803E-04   0.8042993908E-15   0.1418845667E-14                NaN
   0.1900000000E+01   0.7291274411E+00  -0.6945073876E-16   0.4586755960E+02   0.1058644752E-04   0.1058644751E-04  -0.4434037154E-14   0.1110360274E-14                NaN
   0.0000000000E+00   0.7291274411E+00  -0.5965898233E-16   0.2293378013E+02   0.5293224134E-05   0.5293224135E-05  -0.3666667133E-14   0.1177547004E-14                NaN
   0.0000000000E+00   0.0000000000E+00   0.7291274411E+00   0.2293378013E+02   0.5293224148E-05   0.5293224147E-05   0.6022847707E-20   0.1833918180E-14                NaN
   0.1900000000E+01   0.0000000000E+00   0.7291274411E+00   0.4586755960E+02   0.1058644799E-04   0.1058644798E-04   0.1608755758E-14   0.2692727126E-14                NaN
   0.1900000000E+01   0.7291274411E+00   0.7291274411E+00   0.4586755959E+02   0.1058644827E-04   0.1058644827E-04   0.2655944533E-14  -0.2266224991E-14                NaN
   0.0000000000E+00   0.7291274411E+00   0.7291274411E+00   0.2293378012E+02   0.5293224507E-05   0.5293224509E-05   0.1046899173E-14  -0.6286040239E-14                NaN
   0.3800000000E+01   0.0000000000E+00  -0.4267226368E-16   0.6880133908E+02   0.1587967119E-04   0.1587967119E-04   0.8041045711E-15   0.2905665546E-14                NaN
   0.3800000000E+01   0.7291274411E+00  -0.3582018528E-15   0.6880133907E+02   0.1587967124E-04   0.1587967124E-04  -0.6006073007E-14  -0.2975558369E-14                NaN
   0.3800000000E+01   0.0000000000E+00   0.7291274411E+00   0.6880133907E+02   0.1587967148E-04   0.1587967147E-04   0.1608353416E-14   0.3349346603E-15                NaN
   0.3800000000E+01   0.7291274411E+00   0.7291274411E+00   0.6880133906E+02   0.1587967213E-04   0.1587967213E-04   0.2655837817E-14  -0.2265141655E-14                NaN
     1     2     3     4     5     6     7     8
     2     9    10     3     6    11    12     7
 VARIABLES = X,Y,Z,S11,S22,S33,S12,S13,S23
 ZONE, T="0.7000D+01" F=FEPOINT, I=   12 J=    2 ET=BRICK
   0.0000000000E+00   0.0000000000E+00   0.0000000000E+00   0.2759343553E+02   0.2660866426E-05   0.2660866423E-05  -0.5782622627E-19  -0.2255358139E-14                NaN
   0.2050000000E+01   0.0000000000E+00  -0.9335706928E-16   0.5518687027E+02   0.5321733617E-05   0.5321733619E-05   0.5566926177E-18   0.3626444573E-15                NaN
   0.2050000000E+01   0.7026489708E+00   0.5922016547E-16   0.5518687026E+02   0.5321732830E-05   0.5321732826E-05   0.5982246753E-19  -0.9304059892E-16                NaN
   0.0000000000E+00   0.7026489708E+00   0.8893459248E-16   0.2759343552E+02   0.2660866694E-05   0.2660866692E-05  -0.1693692738E-14  -0.8609358353E-16                NaN
   0.0000000000E+00   0.0000000000E+00   0.7026489708E+00   0.2759343552E+02   0.2660866390E-05   0.2660866390E-05  -0.6929676911E-19   0.1693484297E-14                NaN
   0.2050000000E+01   0.0000000000E+00   0.7026489708E+00   0.5518687026E+02   0.5321733903E-05   0.5321733906E-05  -0.3054994856E-18   0.1547400925E-14                NaN
   0.2050000000E+01   0.7026489708E+00   0.7026489708E+00   0.5518687025E+02   0.5321732990E-05   0.5321732987E-05   0.1693676928E-14   0.1547781713E-14                NaN
   0.0000000000E+00   0.7026489708E+00   0.7026489708E+00   0.2759343552E+02   0.2660866720E-05   0.2660866722E-05   0.2540711179E-14  -0.1693200660E-14                NaN
   0.4100000000E+01   0.0000000000E+00  -0.2315070592E-16   0.8278030500E+02   0.7982600177E-05   0.7982600172E-05  -0.1219767041E-18   0.1432657283E-14                NaN
   0.4100000000E+01   0.7026489708E+00  -0.4270415945E-16   0.8278030499E+02   0.7982600145E-05   0.7982600144E-05   0.1692519195E-14  -0.1648189931E-14                NaN
   0.4100000000E+01   0.0000000000E+00   0.7026489708E+00   0.8278030499E+02   0.7982599842E-05   0.7982599840E-05   0.2197261292E-18  -0.1466722171E-15                NaN
   0.4100000000E+01   0.7026489708E+00   0.7026489708E+00   0.8278030498E+02   0.7982600687E-05   0.7982600689E-05   0.8474041041E-15   0.3240561768E-14                NaN
     1     2     3     4     5     6     7     8
     2     9    10     3     6    11    12     7
 VARIABLES = X,Y,Z,S11,S22,S33,S12,S13,S23
 ZONE, T="0.8000D+01" F=FEPOINT, I=   12 J=    2 ET=BRICK
   0.0000000000E+00   0.0000000000E+00   0.0000000000E+00   0.3253383347E+02   0.1409325512E-05   0.1409325511E-05   0.7911730879E-19   0.1091640494E-14                NaN
   0.2200000000E+01   0.0000000000E+00   0.3586956845E-16   0.6506766602E+02   0.2818650809E-05   0.2818650809E-05  -0.1407924712E-18  -0.1331340424E-14                NaN
   0.2200000000E+01   0.6789886336E+00   0.7364577162E-16   0.6506766601E+02   0.2818650539E-05   0.2818650538E-05  -0.1815031752E-14   0.1620080785E-14                NaN
   0.0000000000E+00   0.6789886336E+00   0.4648923298E-16   0.3253383347E+02   0.1409325433E-05   0.1409325432E-05  -0.2721661410E-14   0.7778578186E-16                NaN
   0.0000000000E+00   0.0000000000E+00   0.6789886336E+00   0.3253383347E+02   0.1409324605E-05   0.1409324607E-05  -0.1657694415E-19   0.1209523264E-14                NaN
   0.2200000000E+01   0.0000000000E+00   0.6789886336E+00   0.6506766601E+02   0.2818650076E-05   0.2818650077E-05   0.1493062470E-14  -0.2832942320E-15                NaN
   0.2200000000E+01   0.6789886336E+00   0.6789886336E+00   0.6506766600E+02   0.2818650480E-05   0.2818650481E-05   0.3308353094E-14  -0.1814615500E-14                NaN
   0.0000000000E+00   0.6789886336E+00   0.6789886336E+00   0.3253383347E+02   0.1409325200E-05   0.1409325202E-05   0.2722435352E-14  -0.9075519396E-15                NaN
   0.4400000000E+01   0.0000000000E+00  -0.2105109578E-16   0.9760149856E+02   0.4227976251E-05   0.4227976253E-05   0.5845594483E-18  -0.2261664673E-14                NaN
   0.4400000000E+01   0.6789886336E+00   0.1680180249E-15   0.9760149855E+02   0.4227975101E-05   0.4227975095E-05  -0.9074568322E-15   0.3160601622E-14                NaN
   0.4400000000E+01   0.0000000000E+00   0.6789886336E+00   0.9760149855E+02   0.4227975693E-05   0.4227975694E-05   0.1492655944E-14  -0.2834550581E-15                NaN
   0.4400000000E+01   0.6789886336E+00   0.6789886336E+00   0.9760149854E+02   0.4227975216E-05   0.4227975210E-05   0.2400785262E-14  -0.2723453227E-14                NaN
     1     2     3     4     5     6     7     8
     2     9    10     3     6    11    12     7
 VARIABLES = X,Y,Z,S11,S22,S33,S12,S13,S23
 ZONE, T="0.9000D+01" F=FEPOINT, I=   12 J=    2 ET=BRICK
   0.0000000000E+00   0.0000000000E+00   0.0000000000E+00   0.3776010154E+02   0.7803475393E-06   0.7803475384E-06  -0.5700683284E-19   0.8748962809E-16                NaN
   0.2350000000E+01   0.0000000000E+00  -0.2762491126E-16   0.7552020201E+02   0.1560695431E-05   0.1560695431E-05   0.1814323000E-18   0.7877001100E-15                NaN
   0.2350000000E+01   0.6576908986E+00  -0.1041225154E-15   0.7552020200E+02   0.1560695933E-05   0.1560695936E-05   0.6452474250E-15   0.1683329380E-14                NaN
   0.0000000000E+00   0.6576908986E+00  -0.7453239689E-16   0.3776010154E+02   0.7803478905E-06   0.7803478939E-06  -0.2258109217E-14  -0.1151126517E-14                NaN
   0.0000000000E+00   0.0000000000E+00   0.6576908986E+00   0.3776010154E+02   0.7803474889E-06   0.7803474881E-06   0.1691349105E-18  -0.1290165317E-14                NaN
   0.2350000000E+01   0.0000000000E+00   0.6576908986E+00   0.7552020200E+02   0.1560695532E-05   0.1560695531E-05  -0.1443855987E-14   0.1598013641E-14                NaN
   0.2350000000E+01   0.6576908986E+00   0.6576908986E+00   0.7552020199E+02   0.1560695906E-05   0.1560695909E-05  -0.1444604132E-14  -0.1135048716E-14                NaN
   0.0000000000E+00   0.6576908986E+00   0.6576908986E+00   0.3776010153E+02   0.7803479037E-06   0.7803479073E-06   0.1934681279E-14  -0.2581174355E-14                NaN
   0.4700000000E+01   0.0000000000E+00  -0.1531291672E-15   0.1132803025E+03   0.2341044075E-05   0.2341044075E-05   0.4071528407E-18  -0.1398803678E-14                NaN
   0.4700000000E+01   0.6576908986E+00  -0.2448297049E-16   0.1132803025E+03   0.2341043777E-05   0.2341043776E-05   0.3548591348E-14   0.3069807541E-14                NaN
   0.4700000000E+01   0.0000000000E+00   0.6576908986E+00   0.1132803025E+03   0.2341043373E-05   0.2341043375E-05  -0.1444396330E-14   0.1599478330E-14                NaN
   0.4700000000E+01   0.6576908986E+00   0.6576908986E+00   0.1132803024E+03   0.2341043962E-05   0.2341043963E-05  -0.3380404763E-14  -0.1136900812E-14                NaN
     1     2     3     4     5     6     7     8
     2     9    10     3     6    11    12     7
 VARIABLES = X,Y,Z,S11,S22,S33,S12,S13,S23
 ZONE, T="0.1000D+02" F=FEPOINT, I=   12 J=    2 ET=BRICK
   0.0000000000E+00   0.0000000000E+00   0.0000000000E+00   0.4327545621E+02   0.4489093492E-06   0.4489093492E-06  -0.1858804364E-18   0.1458118386E-14                NaN
   0.2500000000E+01   0.0000000000E+00   0.5670355890E-16   0.8655091118E+02   0.8978186857E-06   0.8978186857E-06   0.1400079699E-14   0.2683988688E-14                NaN
   0.2500000000E+01   0.6383971140E+00   0.9397644282E-17   0.8655091117E+02   0.8978186856E-06   0.8978186856E-06   0.2085332532E-14  -0.2073045751E-15                NaN
   0.0000000000E+00   0.6383971140E+00   0.2061179252E-16   0.4327545620E+02   0.4489093492E-06   0.4489093492E-06   0.1713303810E-14  -0.3120872203E-15                NaN
   0.0000000000E+00   0.0000000000E+00   0.6383971140E+00   0.4327545620E+02   0.4489093492E-06   0.4489093492E-06   0.7540894239E-19  -0.3431488953E-15                NaN
   0.2500000000E+01   0.0000000000E+00   0.6383971140E+00   0.8655091117E+02   0.8978186856E-06   0.8978186856E-06  -0.6613515581E-18   0.2085016435E-14                NaN
   0.2500000000E+01   0.6383971140E+00   0.6383971140E+00   0.8655091116E+02   0.8978186855E-06   0.8978186855E-06  -0.2821892050E-18   0.1370562386E-14                NaN
   0.0000000000E+00   0.6383971140E+00   0.6383971140E+00   0.4327545620E+02   0.4489093491E-06   0.4489093491E-06  -0.2055686917E-14   0.1371056348E-14                NaN
   0.5000000000E+01   0.0000000000E+00   0.4728715400E-16   0.1298263662E+03   0.1346728022E-05   0.1346728022E-05   0.1400877266E-14   0.2510390977E-14                NaN
   0.5000000000E+01   0.6383971140E+00   0.1509485548E-16   0.1298263661E+03   0.1346728022E-05   0.1346728022E-05   0.1057893240E-14  -0.1013434991E-15                NaN
   0.5000000000E+01   0.0000000000E+00   0.6383971140E+00   0.1298263661E+03   0.1346728022E-05   0.1346728022E-05  -0.2196812993E-18   0.3113713751E-14                NaN
   0.5000000000E+01   0.6383971140E+00   0.6383971140E+00   0.1298263661E+03   0.1346728022E-05   0.1346728022E-05   0.2056300969E-14   0.1371246855E-14                NaN
     1     2     3     4     5     6     7     8
     2     9    10     3     6    11    12     7
 VARIABLES = X,Y,Z,S11,S22,S33,S12,S13,S23
 ZONE, T="0.1100D+02" F=FEPOINT, I=   12 J=    2 ET=BRICK
   0.0000000000E+00   0.0000000000E+00   0.0000000000E+00   0.4327545579E+02   0.1648863923E-07   0.1648863923E-07   0.4420732976E-19   0.1216667401E-15                NaN
   0.2500000000E+01   0.0000000000E+00   0.2418460164E-16   0.8655091035E+02   0.3297727799E-07   0.3297727799E-07  -0.5484626899E-20   0.1547886169E-14                NaN
   0.2500000000E+01   0.6383971138E+00   0.1172351897E-16   0.8655091034E+02   0.3297727798E-07   0.3297727798E-07  -0.1370281027E-14  -0.2758799224E-14                NaN
   0.0000000000E+00   0.6383971138E+00   0.1611169565E-15   0.4327545579E+02   0.1648863923E-07   0.1648863923E-07   0.6851720084E-15  -0.4153593081E-14                NaN
   0.0000000000E+00   0.0000000000E+00   0.6383971138E+00   0.4327545579E+02   0.1648863923E-07   0.1648863923E-07  -0.4559393252E-19   0.2741065865E-14                NaN
   0.2500000000E+01   0.0000000000E+00   0.6383971138E+00   0.8655091034E+02   0.3297727798E-07   0.3297727798E-07   0.1542362793E-18   0.2741598113E-14                NaN
   0.2500000000E+01   0.6383971138E+00   0.6383971138E+00   0.8655091033E+02   0.3297727798E-07   0.3297727798E-07   0.2740751967E-14   0.2056223035E-14                NaN
   0.0000000000E+00   0.6383971138E+00   0.6383971138E+00   0.4327545578E+02   0.1648863922E-07   0.1648863922E-07   0.2740958055E-14   0.3084217371E-14                NaN
   0.5000000000E+01   0.0000000000E+00   0.1011774621E-15   0.1298263649E+03   0.4946591674E-07   0.4946591674E-07  -0.6399129293E-18   0.2973116522E-14                NaN
   0.5000000000E+01   0.6383971138E+00   0.8703785270E-16   0.1298263649E+03   0.4946591674E-07   0.4946591674E-07  -0.3426318798E-14  -0.1364866273E-14                NaN
   0.5000000000E+01   0.0000000000E+00   0.6383971138E+00   0.1298263649E+03   0.4946591674E-07   0.4946591674E-07  -0.6151811405E-18   0.2741141286E-14                NaN
   0.5000000000E+01   0.6383971138E+00   0.6383971138E+00   0.1298263649E+03   0.4946591673E-07   0.4946591673E-07   0.2739576631E-14   0.1027367794E-14                NaN
     1     2     3     4     5     6     7     8
     2     9    10     3     6    11    12     7
 VARIABLES = X,Y,Z,S11,S22,S33,S12,S13,S23
 ZONE, T="0.1200D+02" F=FEPOINT, I=   12 J=    2 ET=BRICK
   0.0000000000E+00   0.0000000000E+00   0.0000000000E+00   0.4327545578E+02  -0.5844897969E-12  -0.5844897969E-12  -0.1564913701E-18   0.2300773602E-14                NaN
   0.2500000000E+01   0.0000000000E+00   0.4286332301E-16   0.8655091032E+02  -0.3205973198E-12  -0.3205973198E-12   0.5599687403E-14   0.6973547061E-14                NaN
   0.2500000000E+01   0.6383971138E+00  -0.6957183536E-16   0.8655091031E+02  -0.5167091998E-13  -0.5167091998E-13   0.1488186726E-14  -0.3956415538E-14                NaN
   0.0000000000E+00   0.6383971138E+00   0.1276858197E-15   0.4327545577E+02   0.8782619690E-13   0.8782619690E-13  -0.4111657168E-14  -0.4627591197E-14                NaN
   0.0000000000E+00   0.0000000000E+00   0.6383971138E+00   0.4327545577E+02   0.8782619690E-13   0.8782619690E-13  -0.1919703462E-18  -0.4454510716E-14                NaN
   0.2500000000E+01   0.0000000000E+00   0.6383971138E+00   0.8655091031E+02  -0.5167091998E-13  -0.5167091998E-13  -0.1399550971E-14   0.4973448145E-14                NaN
   0.2500000000E+01   0.6383971138E+00   0.6383971138E+00   0.8655091030E+02  -0.1237295223E-12  -0.1237295223E-12   0.2711949705E-14  -0.2026082430E-14                NaN
   0.0000000000E+00   0.6383971138E+00   0.6383971138E+00   0.4327545577E+02  -0.9232030734E-13  -0.9232030734E-13   0.4111308706E-14  -0.3425815457E-15                NaN
   0.5000000000E+01   0.0000000000E+00  -0.1584085981E-15   0.1298263649E+03  -0.5670484269E-13  -0.5670484269E-13   0.5599954137E-14   0.3246641261E-14                NaN
   0.5000000000E+01   0.6383971138E+00  -0.1089483905E-15   0.1298263648E+03  -0.1911680368E-12  -0.1911680368E-12   0.1488453460E-14  -0.4686685563E-14                NaN
   0.5000000000E+01   0.0000000000E+00   0.6383971138E+00   0.1298263648E+03  -0.1911680368E-12  -0.1911680368E-12  -0.1398715513E-14   0.6001727746E-14                NaN
   0.5000000000E+01   0.6383971138E+00   0.6383971138E+00   0.1298263648E+03  -0.1551387372E-12  -0.1551387372E-12   0.2712785163E-14  -0.5111028998E-14                NaN
     1     2     3     4     5     6     7     8
     2     9    10     3     6    11    12     7
 VARIABLES = X,Y,Z,S11,S22,S33,S12,S13,S23
 ZONE, T="0.1300D+02" F=FEPOINT, I=   12 J=    2 ET=BRICK
   0.0000000000E+00   0.0000000000E+00   0.0000000000E+00   0.4327545578E+02  -0.5425087548E-13  -0.5421415489E-13  -0.1592812279E-18  -0.7370883808E-15                NaN
   0.2500000000E+01   0.0000000000E+00  -0.4956458078E-16   0.8655091032E+02  -0.1085017494E-12  -0.1085751906E-12   0.2800203313E-14   0.2002595276E-14                NaN
   0.2500000000E+01   0.6383971138E+00   0.1096824820E-16   0.8655091031E+02  -0.1085017494E-12  -0.1082276632E-12  -0.2681985690E-14  -0.1666207523E-14                NaN
   0.0000000000E+00   0.6383971138E+00   0.1052759889E-16   0.4327545577E+02  -0.5425087548E-13  -0.5438791859E-13  -0.5482561543E-14   0.1496390928E-15                NaN
   0.0000000000E+00   0.0000000000E+00   0.6383971138E+00   0.4327545577E+02  -0.5425087548E-13  -0.5421415489E-13   0.2950458320E-18   0.1713362792E-14                NaN
   0.2500000000E+01   0.0000000000E+00   0.6383971138E+00   0.8655091031E+02  -0.1085017494E-12  -0.1085751906E-12  -0.2799755568E-14   0.4886020417E-14                NaN
   0.2500000000E+01   0.6383971138E+00   0.6383971138E+00   0.8655091030E+02  -0.1085017494E-12  -0.1082276631E-12   0.3367558306E-14  -0.7568000018E-14                NaN
   0.0000000000E+00   0.6383971138E+00   0.6383971138E+00   0.4327545577E+02  -0.5425087547E-13  -0.5438791859E-13   0.7195835479E-14  -0.5139277106E-14                NaN
   0.5000000000E+01   0.0000000000E+00  -0.1284654022E-15   0.1298263649E+03  -0.1627526234E-12  -0.1622411714E-12   0.2798673768E-14   0.5408841912E-15                NaN
   0.5000000000E+01   0.6383971138E+00  -0.1144076252E-16   0.1298263648E+03  -0.1627526233E-12  -0.1646613881E-12  -0.2683301977E-14  -0.2078940546E-14                NaN
   0.5000000000E+01   0.0000000000E+00   0.6383971138E+00   0.1298263648E+03  -0.1627526233E-12  -0.1622411714E-12  -0.2798728034E-14   0.3857283301E-14                NaN
   0.5000000000E+01   0.6383971138E+00   0.6383971138E+00   0.1298263648E+03  -0.1627526233E-12  -0.1646613881E-12   0.2340359282E-14  -0.8593609337E-14                NaN
     1     2     3     4     5     6     7     8
     2     9    10     3     6    11    12     7
 VARIABLES = X,Y,Z,S11,S22,S33,S12,S13,S23
 ZONE, T="0.1400D+02" F=FEPOINT, I=   12 J=    2 ET=BRICK
   0.0000000000E+00   0.0000000000E+00   0.0000000000E+00   0.4327545578E+02  -0.5425087548E-13  -0.5425087548E-13   0.1185997253E-18   0.3889384236E-14                NaN