 VARIABLES = X,Y,Z,DU1,DU2,DU3,U1,U2,U3,S11,S22,S33,Vf
 ZONE, T="0.1000D+00" F=FEPOINT, I=   12 J=    2 ET=BRICK
   0.0000000000E+00   0.0000000000E+00  -0.1799090951E-05   0.0000000000E+00   0.0000000000E+00  -0.9543851442E-06   0.0000000000E+00   0.0000000000E+00  -0.8447058065E-06   0.2917969874E+00  -0.1128377167E+00  -0.1260719971E+00   0.0000000000E+00
   0.1000123678E+01   0.0000000000E+00   0.8078580961E-04   0.2909138836E-04   0.0000000000E+00   0.1830834105E-04   0.9458654575E-04   0.0000000000E+00   0.6247746856E-04   0.1097935666E+01  -0.4155559745E-01  -0.1107072239E+00   0.0000000000E+00
   0.1000179827E+01   0.9997548011E+00  -0.5020799676E-06   0.4137798245E-04  -0.6276344964E-04  -0.6425931228E-05   0.1384491612E-03  -0.1824354087E-03   0.5923851261E-05   0.2259076852+104  -0.1104099917E+00   0.2733024281E+27   0.1885645881E-93
   0.0000000000E+00   0.9999955077E+00  -0.1375988531E-04   0.0000000000E+00  -0.1297008670E-05  -0.5603560420E-05   0.0000000000E+00  -0.3195303134E-05  -0.8156324894E-05   0.4518153703+104  -0.1501052814E+00  -0.1386943164E+00   0.0000000000E+00
   0.0000000000E+00   0.0000000000E+00   0.9999981617E+00   0.0000000000E+00   0.0000000000E+00  -0.3875426261E-06   0.0000000000E+00   0.0000000000E+00  -0.1450778884E-05   0.3467941166E+00  -0.1379938793E+00  -0.1559158731E+00   0.0000000000E+00
   0.1000174955E+01   0.0000000000E+00   0.9997569984E+00   0.3955074606E-04   0.0000000000E+00  -0.6193259362E-04   0.1354043679E-03   0.0000000000E+00  -0.1810689959E-03   0.1085037576E+01   0.2654356364E-01  -0.1659944297E+00   0.0000000000E+00
   0.1000612111E+01   0.9997599110E+00   0.9997681111E+00   0.1481937712E-03  -0.6163945299E-04  -0.5853922544E-04   0.4639175026E-03  -0.1784495737E-03  -0.1733496645E-03   0.2259076852+104  -0.5238768852E-01   0.2733024280E+27   0.1885645881E-93
   0.0000000000E+00   0.1000007726E+01   0.1000017630E+01   0.0000000000E+00   0.3504396669E-05   0.6898226231E-05   0.0000000000E+00   0.4221318491E-05   0.1073167126E-04   0.4518153703+104  -0.1953987218E+00  -0.1886768047E+00   0.0000000000E+00
   0.2001000000E+01   0.0000000000E+00   0.8410627477E-04   0.1000000000E-03   0.0000000000E+00   0.2092167109E-04   0.9000000000E-03   0.0000000000E+00   0.6318460368E-04   0.1819281011E+01   0.7817140856E-01  -0.5926826534E-01   0.0000000000E+00
   0.2001000000E+01   0.9995384037E+00   0.9995427850E-04   0.1000000000E-03  -0.1133437670E-03   0.2636035468E-04   0.9000000000E-03  -0.3482525346E-03   0.7359392382E-04   0.1644379437E+01  -0.9658998680E-01   0.5466048561E+27   0.3771291763E-93
   0.2001000000E+01   0.0000000000E+00   0.9995456653E+00   0.1000000000E-03   0.0000000000E+00  -0.1107719798E-03   0.9000000000E-03   0.0000000000E+00  -0.3435626740E-03   0.1659698988E+01   0.3967661417E+00  -0.2187074188E+00   0.0000000000E+00
   0.2001000000E+01   0.1001032188E+01   0.1001059255E+01   0.1000000000E-03   0.2711352096E-03   0.2807160345E-03   0.9000000000E-03   0.7610529647E-03   0.7785389658E-03   0.1485027819E+01   0.2219230940E+00   0.5466048561E+27   0.3771291763E-93
     1     2     3     4     5     6     7     8
     2     9    10     3     6    11    12     7
 VARIABLES = X,Y,Z,DU1,DU2,DU3,U1,U2,U3,S11,S22,S33,Vf
 ZONE, T="0.2000D+00" F=FEPOINT, I=   12 J=    2 ET=BRICK
   0.0000000000E+00   0.0000000000E+00  -0.5992419067E-04   0.0000000000E+00   0.0000000000E+00  -0.1182679722E-04   0.0000000000E+00   0.0000000000E+00  -0.4809739345E-04   0.1301640260E+01  -0.4621273496E+01  -0.4762400304E+00   0.1348448649E+01
   0.1000613678E+01   0.0000000000E+00   0.3936096184E-03   0.6134759198E-04   0.0000000000E+00   0.4268050159E-04   0.5523299454E-03   0.0000000000E+00   0.3509291168E-03   0.3657341490E+01  -0.3404737535E+01  -0.7823127608E+00   0.5635711487E+00
   0.1000743801E+01   0.9985174013E+00  -0.5326939753E-03   0.5329108448E-04  -0.1750377510E-03  -0.1086912951E-03   0.6905096275E-03  -0.1307560959E-02  -0.4240026802E-03   0.2259076852+104  -0.8533019466E+00   0.2733024281E+27   0.1885645881E-93
   0.0000000000E+00   0.9999602103E+00  -0.3181015147E-03   0.0000000000E+00  -0.5353385101E-05  -0.6180420851E-04   0.0000000000E+00  -0.3443627184E-04  -0.2562973062E-03   0.4518153703+104  -0.3471192815E+00  -0.1700629911E+01   0.0000000000E+00
   0.0000000000E+00   0.0000000000E+00   0.9999807390E+00   0.0000000000E+00   0.0000000000E+00  -0.4262334767E-05   0.0000000000E+00   0.0000000000E+00  -0.1499870367E-04   0.1755582012E+00  -0.9172994698E+00  -0.8498863959E+00  -0.1553668218E+01
   0.1000649866E+01   0.0000000000E+00   0.9985490291E+00   0.3531425081E-04   0.0000000000E+00  -0.1702835179E-03   0.6145514581E-03   0.0000000000E+00  -0.1280687344E-02   0.2181501232E+01  -0.9699408630E+00  -0.9132124757E+00  -0.1552445073E+01
   0.1002923490E+01   0.9985952300E+00   0.9987132861E+00   0.2617240919E-03  -0.1593440094E-03  -0.1415722077E-03   0.2661766006E-02  -0.1245425943E-02  -0.1145141651E-02   0.2259076852+104  -0.8490548535E+00   0.2733024280E+27  -0.1112039503E+00
   0.0000000000E+00   0.1000227252E+01   0.1000303811E+01   0.0000000000E+00   0.4549830261E-04   0.4955616756E-04   0.0000000000E+00   0.1817532639E-03   0.2542548342E-03   0.4518153703+104  -0.1282666735E+01  -0.2188919145E+01  -0.2224079005E+00
   0.2002000000E+01   0.0000000000E+00   0.7605584201E-03   0.1000000000E-03   0.0000000000E+00   0.1265844024E-03   0.1900000000E-02   0.0000000000E+00   0.6339740177E-03   0.5426634853E+01  -0.1767734014E+01  -0.9258667635E+00  -0.2213063518E+00
   0.2002000000E+01   0.9978745143E+00   0.6159167812E-03   0.1000000000E-03  -0.1849439279E-03   0.8424004066E-04   0.1900000000E-02  -0.1940541755E-02   0.5316767406E-03   0.3312657571E+01  -0.1341572855E+01   0.5466048561E+27   0.3771291763E-93
   0.2002000000E+01   0.0000000000E+00   0.9979504816E+00   0.1000000000E-03   0.0000000000E+00  -0.1761056839E-03   0.1900000000E-02   0.0000000000E+00  -0.1873412672E-02   0.3165823827E+01   0.2673971698E+00  -0.1250891347E+01  -0.1551221928E+01
   0.2002000000E+01   0.1006237211E+01   0.1006520057E+01   0.1000000000E-03   0.7163400415E-03   0.7493514519E-03   0.1900000000E-02   0.5520871028E-02   0.5770705598E-02   0.1824709521E+01   0.4699144566E+00   0.5466048561E+27   0.3771291763E-93
     1     2     3     4     5     6     7     8
     2     9    10     3     6    11    12     7
 VARIABLES = X,Y,Z,DU1,DU2,DU3,U1,U2,U3,S11,S22,S33,Vf
 ZONE, T="0.3000D+00" F=FEPOINT, I=   12 J=    2 ET=BRICK
   0.0000000000E+00   0.0000000000E+00  -0.3507713138E-03   0.0000000000E+00   0.0000000000E+00  -0.5051108967E-04   0.0000000000E+00   0.0000000000E+00  -0.3002602241E-03   0.1849455283E+01  -0.1668200225E+01   0.4715927687E+00   0.1378261145E+01
   0.1001402106E+01   0.0000000000E+00   0.1095367350E-02   0.1034099006E-03   0.0000000000E+00   0.1022381899E-03   0.1298696597E-02   0.0000000000E+00   0.9931291596E-03   0.4488954404E+01  -0.1750198421E+01  -0.8922448610E+00   0.8743674730E+00
   0.1000980795E+01   0.9960843680E+00  -0.2572418752E-02   0.3594279721E-05  -0.2990429265E-03  -0.2896885129E-03   0.9772009540E-03  -0.3616589110E-02  -0.2282730239E-02   0.2259076852+104  -0.3682550006E+01   0.2733024281E+27  -0.6640252564E+00
   0.0000000000E+00   0.1000114098E+01  -0.1624962921E-02   0.0000000000E+00   0.5686350160E-04  -0.2002995832E-03   0.0000000000E+00   0.5723469330E-04  -0.1424663338E-02   0.4518153703+104  -0.3642438427E+01  -0.1984884771E+00  -0.1328050513E+01
   0.0000000000E+00   0.0000000000E+00   0.1000044853E+01   0.0000000000E+00   0.0000000000E+00   0.3443364102E-04   0.0000000000E+00   0.0000000000E+00   0.1041893535E-04   0.1726800896E+01  -0.1745387681E+01  -0.2703960814E+01   0.0000000000E+00
   0.1000445527E+01   0.0000000000E+00   0.9961834445E+00  -0.7339256002E-04   0.0000000000E+00  -0.2900200170E-03   0.5189190718E-03   0.0000000000E+00  -0.3526535486E-02   0.3956646103E+01  -0.3401844377E+00  -0.3719774684E+01  -0.1110721903E+00
   0.1005098083E+01   0.9961254540E+00   0.9964977546E+00   0.1635543128E-03  -0.3583331830E-03  -0.3242122934E-03   0.4934528740E-02  -0.3516212824E-02  -0.3178033065E-02   0.2259076852+104  -0.2704946631E+01   0.2733024280E+27  -0.6619005264E+00
   0.0000000000E+00   0.1001328138E+01   0.1001068547E+01   0.0000000000E+00   0.1877946041E-03   0.1037544827E-03   0.0000000000E+00   0.1140343292E-02   0.9647920397E-03   0.4518153703+104  -0.3989388763E+01  -0.9354143179E+00  -0.1323801053E+01
   0.2003000000E+01   0.0000000000E+00   0.3316021564E-02   0.1000000000E-03   0.0000000000E+00   0.3805835672E-03   0.2900000000E-02   0.0000000000E+00   0.2935437997E-02   0.5556538972E+01  -0.3177771611E+00  -0.2216697552E+01   0.3704738012E+00
   0.2003000000E+01   0.9957632387E+00   0.2476359769E-02   0.1000000000E-03  -0.2612877337E-03   0.2886399182E-03   0.2900000000E-02  -0.3975473557E-02   0.2187719851E-02   0.2726413891E+01  -0.3143948159E+01   0.5466048561E+27   0.3771291763E-93
   0.2003000000E+01   0.0000000000E+00   0.9958886184E+00   0.1000000000E-03   0.0000000000E+00  -0.2593241987E-03   0.2900000000E-02   0.0000000000E+00  -0.3852057369E-02   0.3552584171E+01   0.4700647544E+01  -0.5767750498E+01  -0.2221443805E+00
   0.2003000000E+01   0.1016288655E+01   0.1016773040E+01   0.1000000000E-03   0.1294662377E-02   0.1306088529E-02   0.2900000000E-02   0.1499399280E-01   0.1546695137E-01   0.1645182380E+01   0.1268189214E+01   0.5466048561E+27   0.3771291763E-93
     1     2     3     4     5     6     7     8
     2     9    10     3     6    11    12     7
 VARIABLES = X,Y,Z,DU1,DU2,DU3,U1,U2,U3,S11,S22,S33,Vf
 ZONE, T="0.4000D+00" F=FEPOINT, I=   12 J=    2 ET=BRICK
   0.0000000000E+00   0.0000000000E+00  -0.1338282916E-02   0.0000000000E+00   0.0000000000E+00  -0.1454083664E-03   0.0000000000E+00   0.0000000000E+00  -0.1192874550E-02   0.1567391419E+01  -0.2651342548E+01   0.4518153703+104   0.3834655978E-69
   0.1003164578E+01   0.0000000000E+00   0.2793144872E-02   0.2526863608E-03   0.0000000000E+00   0.2374672350E-03   0.2911891572E-02   0.0000000000E+00   0.2555677636E-02   0.1838255059E+94  -0.2959506979E+01   0.2259076852+104   0.1917327989E-69
   0.1001300488E+01   0.9925437142E+00  -0.6626120510E-02   0.8368123900E-04  -0.3938244338E-03  -0.4969701844E-03   0.1216806499E-02  -0.7062461335E-02  -0.6129150326E-02   0.5562720925E+01  -0.5610591560E+01   0.2259842749E+01   0.8487983188-313
   0.0000000000E+00   0.1002055236E+01  -0.4727396853E-02   0.0000000000E+00   0.3382170643E-03  -0.4039511736E-03   0.0000000000E+00   0.1717018830E-02  -0.4323445679E-02   0.1028998453E+01  -0.3698409157E+01   0.6184484850E+00   0.2371515100-321
   0.0000000000E+00   0.0000000000E+00   0.1001477169E+01   0.0000000000E+00   0.0000000000E+00   0.2601327486E-03   0.0000000000E+00   0.0000000000E+00   0.1217036224E-02   0.1047907096E+01  -0.2152863824E+01  -0.9504748031E+00   0.0000000000E+00
   0.9990630642E+00   0.0000000000E+00   0.9927991174E+00  -0.1940968030E-03   0.0000000000E+00  -0.3716029800E-03  -0.7428390270E-03   0.0000000000E+00  -0.6829279669E-02   0.6808204614E+01  -0.9042367157E+00  -0.3689483289E+01                NaN
   0.1006087545E+01   0.9898215433E+00   0.9907660885E+00   0.5763935942E-04  -0.9012823561E-03  -0.8227819808E-03   0.6029905794E-02  -0.9277174325E-02  -0.8411129493E-02   0.4881788051E+01  -0.3797672535E+01   0.1115471749E+01   0.0000000000E+00
   0.0000000000E+00   0.1004920415E+01   0.1002740450E+01   0.0000000000E+00   0.5260804009E-03   0.2296003916E-03   0.0000000000E+00   0.4394334715E-02   0.2510849131E-02   0.1444585520E+01  -0.3664310986E+01   0.1707713724E+00   0.0000000000E+00
   0.2004000000E+01   0.0000000000E+00   0.8871630594E-02   0.1000000000E-03   0.0000000000E+00   0.6990571638E-03   0.3900000000E-02   0.0000000000E+00   0.8172573430E-02   0.3676510117E+94   0.2691263180E+00  -0.5013954851E+01   0.0000000000E+00
   0.2004000000E+01   0.9916080193E+00   0.6243198376E-02   0.1000000000E-03  -0.5757265255E-03   0.4029293954E-03   0.3900000000E-02  -0.7816254153E-02   0.5840268980E-02   0.4949013508E+01  -0.6026514437E+01   0.7463469444E+01   0.1697596635-312
   0.2004000000E+01   0.0000000000E+00   0.9918688332E+00   0.1000000000E-03   0.0000000000E+00  -0.5431293789E-03   0.3900000000E-02   0.0000000000E+00  -0.7588037373E-02   0.7058875490E+01   0.8501404089E+01  -0.9170715417E+01                NaN
   0.2004000000E+01   0.1034320261E+01   0.1035399939E+01   0.1000000000E-03   0.2273020824E-02   0.2408545040E-02   0.3900000000E-02   0.3204723978E-01   0.3299139354E-01   0.9555877640E+00   0.2142414983E+01   0.3221925629E+01   0.0000000000E+00
     1     2     3     4     5     6     7     8
     2     9    10     3     6    11    12     7
 VARIABLES = X,Y,Z,DU1,DU2,DU3,U1,U2,U3,S11,S22,S33,Vf
 ZONE, T="0.5000D+00" F=FEPOINT, I=   12 J=    2 ET=BRICK
   0.0000000000E+00   0.0000000000E+00  -0.3430578920E-02   0.0000000000E+00   0.0000000000E+00  -0.2625885387E-03   0.0000000000E+00   0.0000000000E+00  -0.3167990382E-02   0.1022015799E+01  -0.2867868277E+01   0.4518153703+104   0.3834655978E-69
   0.1006819519E+01   0.0000000000E+00   0.6279358024E-02   0.4591278574E-03   0.0000000000E+00   0.4488819564E-03   0.6360390860E-02   0.0000000000E+00   0.5830476068E-02   0.1838255059E+94  -0.4221290587E+01   0.2259076852+104   0.1917327989E-69
   0.1003252152E+01   0.9880282756E+00  -0.1238309546E-01   0.2946950740E-03  -0.5098294921E-03  -0.6244038293E-03   0.2957457276E-02  -0.1146189490E-01  -0.1175869163E-01   0.7978982007E+01  -0.8445415543E+01   0.3459097265E+01   0.8487983188-313
   0.0000000000E+00   0.1007506130E+01  -0.9832502354E-02   0.0000000000E+00   0.7131773293E-03  -0.5935851167E-03   0.0000000000E+00   0.6792952978E-02  -0.9238917238E-02   0.2062622003E+00  -0.4174887429E+01   0.1688817914E+01   0.2371515100-321
   0.0000000000E+00   0.0000000000E+00   0.1005742794E+01   0.0000000000E+00   0.0000000000E+00   0.5590150374E-03   0.0000000000E+00   0.0000000000E+00   0.5183778750E-02  -0.8559589516E+00  -0.2001470087E+01   0.5667133960E+00   0.0000000000E+00
   0.9960677775E+00   0.0000000000E+00   0.9885619859E+00  -0.4084431177E-03   0.0000000000E+00  -0.4799464856E-03  -0.3523779407E-02   0.0000000000E+00  -0.1095806766E-01   0.9985439102E+01  -0.1700098004E+01  -0.5288154559E+01                NaN
   0.1006394811E+01   0.9771424397E+00   0.9789316426E+00   0.7422880257E-05  -0.1555626007E-02  -0.1482858907E-02   0.6387388527E-02  -0.2130193429E-01  -0.1958549847E-01   0.6789755761E+01  -0.6318863981E+01   0.2485671032E+01   0.0000000000E+00
   0.0000000000E+00   0.1012539742E+01   0.1005777167E+01   0.0000000000E+00   0.9622536036E-03   0.3574717350E-03   0.0000000000E+00   0.1157748838E-01   0.5419695743E-02  -0.2108328673E+00  -0.4032977094E+01   0.1962916727E+01   0.0000000000E+00
   0.2005000000E+01   0.0000000000E+00   0.1758237528E-01   0.1000000000E-03   0.0000000000E+00   0.1014974258E-02   0.4900000000E-02   0.0000000000E+00   0.1656740102E-01   0.3676510117E+94   0.6043291677E+00  -0.9356621126E+01   0.0000000000E+00
   0.2005000000E+01   0.9833576881E+00   0.9318030733E-02   0.1000000000E-03  -0.1038936221E-02   0.1894127714E-03   0.4900000000E-02  -0.1560337572E-01   0.9128617962E-02   0.5751994341E+01  -0.1082992555E+02   0.1312900082E+02   0.1697596635-312
   0.2005000000E+01   0.0000000000E+00   0.9843745249E+00   0.1000000000E-03   0.0000000000E+00  -0.9226018005E-03   0.4900000000E-02   0.0000000000E+00  -0.1470287331E-01   0.1031718959E+02   0.1383938093E+02  -0.1609468962E+02                NaN
   0.2005000000E+01   0.1063513129E+01   0.1067688407E+01   0.1000000000E-03   0.3455705765E-02   0.3934556184E-02   0.4900000000E-02   0.6005742355E-01   0.6375385086E-01  -0.4047195814E+00   0.2201868358E+01   0.6089549924E+01   0.0000000000E+00
     1     2     3     4     5     6     7     8
     2     9    10     3     6    11    12     7
 VARIABLES = X,Y,Z,DU1,DU2,DU3,U1,U2,U3,S11,S22,S33,Vf
 ZONE, T="0.6000D+00" F=FEPOINT, I=   12 J=    2 ET=BRICK
   0.0000000000E+00   0.0000000000E+00  -0.6829823803E-02   0.0000000000E+00   0.0000000000E+00  -0.4125354248E-03   0.0000000000E+00   0.0000000000E+00  -0.6417288378E-02  -0.1296221688E+00  -0.2460807817E+01   0.4518153703+104   0.3834655978E-69
   0.1012609472E+01   0.0000000000E+00   0.1213079165E-01   0.6827559256E-03   0.0000000000E+00   0.7000670315E-03   0.1192671564E-01   0.0000000000E+00   0.1143072462E-01   0.1838255059E+94  -0.5451107027E+01   0.2259076852+104   0.1917327989E-69
   0.1007422399E+01   0.9819627035E+00  -0.1919258576E-01   0.5138982934E-03  -0.6929384858E-03  -0.7423962929E-03   0.6908500613E-02  -0.1734435797E-01  -0.1845018946E-01   0.1176630021E+02  -0.1171542738E+02   0.3594240753E+01   0.8487983188-313
   0.0000000000E+00   0.1016715090E+01  -0.1693670622E-01   0.0000000000E+00   0.1098687944E-02  -0.8245577573E-03   0.0000000000E+00   0.1561640174E-01  -0.1611214846E-01  -0.7844863837E+00  -0.3929904365E+01   0.1906305341E+01   0.2371515100-321
   0.0000000000E+00   0.0000000000E+00   0.1012907470E+01   0.0000000000E+00   0.0000000000E+00   0.8502375866E-03   0.0000000000E+00   0.0000000000E+00   0.1205723214E-01  -0.4571318866E+01  -0.8248270558E+00   0.2562891389E+01   0.0000000000E+00
   0.9902563361E+00   0.0000000000E+00   0.9827923866E+00  -0.7275960330E-03   0.0000000000E+00  -0.6616676556E-03  -0.9016067850E-02   0.0000000000E+00  -0.1654594576E-01   0.1428904629E+02  -0.2433909614E+01  -0.8207772157E+01                NaN
   0.1005804644E+01   0.9583603449E+00   0.9603876373E+00  -0.1316076794E-03  -0.2145412123E-02  -0.2166042905E-02   0.5936251811E-02  -0.3949424302E-01  -0.3744631981E-01   0.9736909508E+01  -0.9329506988E+01   0.3152306675E+01   0.0000000000E+00
   0.0000000000E+00   0.1024979555E+01   0.1009968950E+01   0.0000000000E+00   0.1495411373E-02   0.4719884976E-03   0.0000000000E+00   0.2348414386E-01   0.9496961070E-02  -0.3039573320E+01  -0.3377827554E+01   0.3599529176E+01   0.0000000000E+00
   0.2006000000E+01   0.0000000000E+00   0.2984924916E-01   0.1000000000E-03   0.0000000000E+00   0.1425190264E-02   0.5900000000E-02   0.0000000000E+00   0.2842405890E-01   0.3676510117E+94   0.6852277568E+00  -0.1574314050E+02   0.0000000000E+00
   0.2006000000E+01   0.9703967809E+00   0.9494776697E-02   0.1000000000E-03  -0.1498550057E-02  -0.1066818968E-03   0.5900000000E-02  -0.2810466903E-01   0.9601458593E-02   0.6813555764E+01  -0.1819896986E+02   0.2102380662E+02   0.1697596635-312
   0.2006000000E+01   0.0000000000E+00   0.9731585151E+00   0.1000000000E-03   0.0000000000E+00  -0.1275684076E-02   0.5900000000E-02   0.0000000000E+00  -0.2556580085E-01   0.1519792146E+02   0.2036396174E+02  -0.2589711016E+02                NaN
   0.2006000000E+01   0.1104561746E+01   0.1116151110E+01   0.1000000000E-03   0.4638318224E-02   0.5612122452E-02   0.5900000000E-02   0.9992342776E-01   0.1105389878E+00  -0.1689045787E+01   0.9508130377E+00   0.1003107454E+02   0.0000000000E+00
     1     2     3     4     5     6     7     8
     2     9    10     3     6    11    12     7
 VARIABLES = X,Y,Z,DU1,DU2,DU3,U1,U2,U3,S11,S22,S33,Vf
 ZONE, T="0.7000D+00" F=FEPOINT, I=   12 J=    2 ET=BRICK
   0.0000000000E+00   0.0000000000E+00  -0.1209370393E-01   0.0000000000E+00   0.0000000000E+00  -0.6275028924E-03   0.0000000000E+00   0.0000000000E+00  -0.1146620103E-01  -0.1808767265E+01  -0.1218077821E+01   0.4518153703+104   0.3834655978E-69
   0.1020853029E+01   0.0000000000E+00   0.2063086527E-01   0.9429126540E-03   0.0000000000E+00   0.9773910657E-03   0.1991011620E-01   0.0000000000E+00   0.1965347420E-01   0.1838255059E+94  -0.6516041931E+01   0.2259076852+104   0.1917327989E-69
   0.1013633687E+01   0.9737523493E+00  -0.2793088086E-01   0.7037395606E-03  -0.9417252157E-03  -0.1003014304E-02   0.1292994758E-01  -0.2530592547E-01  -0.2692786655E-01   0.1729043255E+02  -0.1551936556E+02   0.3318962780E+01   0.8487983188-313
   0.0000000000E+00   0.1030016574E+01  -0.2722541425E-01   0.0000000000E+00   0.1513963910E-02  -0.1223174104E-02   0.0000000000E+00   0.2850261054E-01  -0.2600224014E-01  -0.2099090101E+01  -0.2782342617E+01   0.2079757044E+01   0.2371515100-321
   0.0000000000E+00   0.0000000000E+00   0.1023142185E+01   0.0000000000E+00   0.0000000000E+00   0.1160041682E-02   0.0000000000E+00   0.0000000000E+00   0.2198214364E-01  -0.1027132626E+02   0.1859968118E+01   0.5567948407E+01   0.0000000000E+00
   0.9812279720E+00   0.0000000000E+00   0.9750463703E+00  -0.1046093574E-02   0.0000000000E+00  -0.8759917950E-03  -0.1772593448E-01   0.0000000000E+00  -0.2407763786E-01   0.2027390007E+02  -0.2803952730E+01  -0.1237242466E+02                NaN
   0.1003632630E+01   0.9332953442E+00   0.9348036153E+00  -0.2631103454E-03  -0.2808630776E-02  -0.2869289659E-02   0.3895739912E-02  -0.6389602506E-01  -0.6232709506E-01   0.1403138722E+02  -0.1280341466E+02   0.3693318842E+01   0.0000000000E+00
   0.0000000000E+00   0.1043247452E+01   0.1015205136E+01   0.0000000000E+00   0.2089300724E-02   0.5499113207E-03   0.0000000000E+00   0.4115815082E-01   0.1465522507E-01  -0.7414422919E+01  -0.1264468635E+01   0.5854407770E+01   0.0000000000E+00
   0.2007000000E+01   0.0000000000E+00   0.4726835299E-01   0.1000000000E-03   0.0000000000E+00   0.2029684560E-02   0.6900000000E-02   0.0000000000E+00   0.4523866843E-01   0.3676510117E+94   0.1014947437E+01  -0.2482394305E+02   0.0000000000E+00
   0.2007000000E+01   0.9530846720E+00   0.7769015857E-02   0.1000000000E-03  -0.1918233232E-02  -0.1886041880E-03   0.6900000000E-02  -0.4499709472E-01   0.7957620045E-02   0.9180514321E+01  -0.2784681408E+02   0.3076639146E+02   0.1697596635-312
   0.2007000000E+01   0.0000000000E+00   0.9585163525E+00   0.1000000000E-03   0.0000000000E+00  -0.1629003068E-02   0.6900000000E-02   0.0000000000E+00  -0.3985464447E-01   0.2296754315E+02   0.2837835975E+02  -0.3916969265E+02                NaN
   0.2007000000E+01   0.1158052713E+01   0.1182318135E+01   0.1000000000E-03   0.5971495946E-02   0.7470456075E-02   0.6900000000E-02   0.1520812167E+00   0.1748476790E+00  -0.1436875469E+01  -0.1641010746E+01   0.1454702087E+02   0.0000000000E+00
     1     2     3     4     5     6     7     8
     2     9    10     3     6    11    12     7
 VARIABLES = X,Y,Z,DU1,DU2,DU3,U1,U2,U3,S11,S22,S33,Vf
 ZONE, T="0.8000D+00" F=FEPOINT, I=   12 J=    2 ET=BRICK
   0.0000000000E+00   0.0000000000E+00  -0.1967953918E-01   0.0000000000E+00   0.0000000000E+00  -0.8648879959E-03   0.0000000000E+00   0.0000000000E+00  -0.1881465119E-01  -0.3218686200E+01   0.2661283169E+00   0.1305666486E+01   0.0000000000E+00
   0.1031662972E+01   0.0000000000E+00   0.3207199473E-01   0.1188039794E-02   0.0000000000E+00   0.1285039538E-02   0.3047493210E-01   0.0000000000E+00   0.3078695520E-01   0.3718746130E+02  -0.8139506668E+01  -0.2096084560E+02   0.0000000000E+00
   0.1021583859E+01   0.9622279574E+00  -0.3989189724E-01   0.8672207967E-03  -0.1358534372E-02  -0.1363231100E-02   0.2071663837E-01  -0.3641350818E-01  -0.3852866614E-01   0.2512745931E+02  -0.2119178807E+02   0.3747530783E+01   0.8487983188-313
   0.0000000000E+00   0.1046817158E+01  -0.4231431078E-01   0.0000000000E+00   0.1778992268E-02  -0.1754758587E-02   0.0000000000E+00   0.4503816584E-01  -0.4055955219E-01  -0.3098121490E+01  -0.1606964089E+01   0.3064253240E+01   0.2371515100-321
   0.0000000000E+00   0.0000000000E+00   0.1035917737E+01   0.0000000000E+00   0.0000000000E+00   0.1342577058E-02   0.0000000000E+00   0.0000000000E+00   0.3457516026E-01  -0.1702911208E+02   0.5514800005E+01   0.9835779725E+01   0.0000000000E+00
   0.9688076874E+00   0.0000000000E+00   0.9645413863E+00  -0.1417676961E-02   0.0000000000E+00  -0.1224649411E-02  -0.2977463567E-01   0.0000000000E+00  -0.3423396429E-01   0.2907867031E+02  -0.3221242690E+01  -0.1811668347E+02                NaN
   0.1001321365E+01   0.9021406524E+00   0.9031650741E+00  -0.1708347402E-03  -0.3310941907E-02  -0.3354929208E-02   0.1492199761E-02  -0.9454840572E-01  -0.9347999668E-01   0.2035855981E+02  -0.1787936852E+02   0.4938139922E+01   0.0000000000E+00
   0.0000000000E+00   0.1066766156E+01   0.1020522353E+01   0.0000000000E+00   0.2539764049E-02   0.4977202470E-03   0.0000000000E+00   0.6422639173E-01   0.2002463282E-01  -0.1232535304E+02   0.1362638866E+01   0.9298728689E+01   0.0000000000E+00
   0.2008000000E+01   0.0000000000E+00   0.7159854925E-01   0.1000000000E-03   0.0000000000E+00   0.2779701060E-02   0.7900000000E-02   0.0000000000E+00   0.6881884819E-01   0.5337756397E+02   0.1753472975E+01  -0.3816027652E+02   0.0000000000E+00
   0.2008000000E+01   0.9318019445E+00   0.6098657397E-02   0.1000000000E-03  -0.2284390947E-02  -0.1554907341E-03   0.7900000000E-02  -0.6591366459E-01   0.6254148131E-02   0.1381992413E+02  -0.4024749168E+02   0.4195186522E+02   0.1697596635-312
   0.2008000000E+01   0.0000000000E+00   0.9399498919E+00   0.1000000000E-03   0.0000000000E+00  -0.2044358666E-02   0.7900000000E-02   0.0000000000E+00  -0.5800574947E-01   0.3502604367E+02   0.3827643483E+02  -0.5756291189E+02                NaN
   0.2008000000E+01   0.1226298763E+01   0.1268133545E+01   0.1000000000E-03   0.7546273433E-02   0.9515037980E-02   0.7900000000E-02   0.2187524896E+00   0.2586185073E+00   0.1550317687E+01  -0.5995904375E+01   0.1899331177E+02   0.0000000000E+00
     1     2     3     4     5     6     7     8
     2     9    10     3     6    11    12     7
 VARIABLES = X,Y,Z,DU1,DU2,DU3,U1,U2,U3,S11,S22,S33,Vf
 ZONE, T="0.9000D+00" F=FEPOINT, I=   12 J=    2 ET=BRICK
   0.0000000000E+00   0.0000000000E+00  -0.2957411723E-01   0.0000000000E+00   0.0000000000E+00  -0.1091061258E-02   0.0000000000E+00   0.0000000000E+00  -0.2848305598E-01  -0.3550077731E+01   0.8048414245E+00   0.2165303280E+01   0.0000000000E+00
   0.1044759860E+01   0.0000000000E+00   0.4683823527E-01   0.1411199324E-02   0.0000000000E+00   0.1646702607E-02   0.4334866070E-01   0.0000000000E+00   0.4519153267E-01   0.5408411521E+02  -0.1096441023E+02  -0.3111566355E+02   0.0000000000E+00
   0.1031093752E+01   0.9451830075E+00  -0.5581337088E-01   0.1018658380E-02  -0.2026694442E-02  -0.1796328010E-02   0.3007509354E-01  -0.5279029805E-01  -0.5401704287E-01   0.3580373198E+02  -0.3046040621E+02   0.5911692610E+01   0.8487983188-313
   0.0000000000E+00   0.1064907037E+01  -0.6312589951E-01   0.0000000000E+00   0.1806615523E-02  -0.2365042439E-02   0.0000000000E+00   0.6310042107E-01  -0.6076085707E-01  -0.3130728406E+01  -0.2170291434E+01   0.4724031729E+01   0.2371515100-321
   0.0000000000E+00   0.0000000000E+00   0.1049332279E+01   0.0000000000E+00   0.0000000000E+00   0.1314030634E-02   0.0000000000E+00   0.0000000000E+00   0.4801824850E-01  -0.2424127173E+02   0.9613378657E+01   0.1403173870E+02   0.0000000000E+00
   0.9521279304E+00   0.0000000000E+00   0.9492421163E+00  -0.1880696336E-02   0.0000000000E+00  -0.1816593307E-02  -0.4599137322E-01   0.0000000000E+00  -0.4894129036E-01   0.4164667876E+02  -0.2747978884E+01  -0.2746680868E+02                NaN
   0.1000841201E+01   0.8681141582E+00   0.8682667851E+00   0.5738457265E-04  -0.3439958520E-02  -0.3582361104E-02   0.7838161821E-03  -0.1284458833E+00  -0.1281508538E+00   0.2869777047E+02  -0.2491944768E+02   0.7054235993E+01   0.0000000000E+00
   0.0000000000E+00   0.1094117543E+01   0.1024663829E+01   0.0000000000E+00   0.2898802910E-02   0.3277934618E-03   0.0000000000E+00   0.9121873969E-01   0.2433603544E-01  -0.1695965767E+02   0.3181377784E+01   0.1318946953E+02   0.0000000000E+00
   0.2009000000E+01   0.0000000000E+00   0.1042209239E+00   0.1000000000E-03   0.0000000000E+00   0.3694921601E-02   0.8900000000E-02   0.0000000000E+00   0.1005260023E+00   0.7729815617E+02   0.3523888853E+01  -0.5770118894E+02   0.0000000000E+00
   0.2009000000E+01   0.9076168922E+00   0.4370458656E-02   0.1000000000E-03  -0.2502564166E-02  -0.1901479184E-03   0.8900000000E-02  -0.8988054359E-01   0.4560606574E-02   0.2161612333E+02  -0.5601833527E+02   0.5499089376E+02   0.1697596635-312
   0.2009000000E+01   0.0000000000E+00   0.9175318750E+00   0.1000000000E-03   0.0000000000E+00  -0.2382209030E-02   0.8900000000E-02   0.0000000000E+00  -0.8008591601E-01   0.5278562132E+02   0.5199120954E+02  -0.8366812956E+02                NaN
   0.2009000000E+01   0.1310791673E+01   0.1375513120E+01   0.1000000000E-03   0.9191706790E-02   0.1178887458E-01   0.8900000000E-02   0.3015999658E+00   0.3637242450E+00   0.7717349175E+01  -0.1170542933E+02   0.2307686634E+02   0.0000000000E+00
     1     2     3     4     5     6     7     8
     2     9    10     3     6    11    12     7
 VARIABLES = X,Y,Z,DU1,DU2,DU3,U1,U2,U3,S11,S22,S33,Vf
 ZONE, T="0.1000D+01" F=FEPOINT, I=   12 J=    2 ET=BRICK
   0.0000000000E+00   0.0000000000E+00  -0.4186689082E-01   0.0000000000E+00   0.0000000000E+00  -0.1353371286E-02   0.0000000000E+00   0.0000000000E+00  -0.4051351953E-01  -0.2055066694E+01  -0.3106383221E+00   0.1666498608E+01   0.0000000000E+00
   0.1060410079E+01   0.0000000000E+00   0.6588246576E-01   0.1711528241E-02   0.0000000000E+00   0.2141546596E-02   0.5869855082E-01   0.0000000000E+00   0.6374091916E-01   0.7886064870E+02  -0.1561666975E+02  -0.4654775906E+02   0.0000000000E+00
   0.1042259438E+01   0.9201747087E+00  -0.7706097460E-01   0.1214480752E-02  -0.2914527862E-02  -0.2438688894E-02   0.4104495747E-01  -0.7691076349E-01  -0.7462228571E-01   0.4995726564E+02  -0.4492525383E+02   0.1021933049E+02   0.8487983188-313
   0.0000000000E+00   0.1082838979E+01  -0.9106205242E-01   0.0000000000E+00   0.1796356278E-02  -0.3192376801E-02   0.0000000000E+00   0.8104262264E-01  -0.8786967562E-01  -0.1936668660E+01  -0.5514767440E+01   0.6758985498E+01   0.2371515100-321