 VARIABLES = X,Y,Z,DU1,DU2,DU3,U1,U2,U3,S11,S22,S33,S12,S13,S23
 ZONE, T="0.1000D+01" F=FEPOINT, I=   12 J=    2 ET=BRICK
   0.0000000000E+00   0.0000000000E+00   0.0000000000E+00   0.0000000000E+00   0.0000000000E+00   0.0000000000E+00   0.0000000000E+00   0.0000000000E+00   0.0000000000E+00   0.8174753274E+00   0.6064672280E-10   0.6064682268E-10  -0.6499201699E-17   0.5046834561E-17  -0.4149237776E-16
   0.1005000000E+01   0.0000000000E+00  -0.4036416249E-18   0.5000000000E-02   0.0000000000E+00  -0.4036416249E-18   0.0000000000E+00   0.0000000000E+00   0.0000000000E+00   0.8174753274E+00   0.6064546254E-10   0.6064550185E-10   0.9726702701E-17  -0.3281752443E-17   0.3989162557E-16
   0.1005000000E+01   0.9976362459E+00  -0.3881709242E-19   0.5000000000E-02  -0.2363754112E-02  -0.3881709242E-19   0.0000000000E+00   0.0000000000E+00   0.0000000000E+00   0.8174753273E+00   0.6064556512E-10   0.6064575595E-10   0.5781779782E-16  -0.3379999095E-16   0.2812919756E-16
   0.0000000000E+00   0.9976362459E+00  -0.9137407862E-19   0.0000000000E+00  -0.2363754112E-02  -0.9137407862E-19   0.0000000000E+00   0.0000000000E+00   0.0000000000E+00   0.8174753274E+00   0.6064533462E-10   0.6064526004E-10   0.2976065757E-17  -0.8854937688E-17   0.2056498478E-16
   0.0000000000E+00   0.0000000000E+00   0.9976362459E+00   0.0000000000E+00   0.0000000000E+00  -0.2363754112E-02   0.0000000000E+00   0.0000000000E+00   0.0000000000E+00   0.8174753274E+00   0.6064495727E-10   0.6064489235E-10   0.2891688055E-17  -0.6164669479E-17   0.3519879906E-16
   0.1005000000E+01   0.0000000000E+00   0.9976362459E+00   0.5000000000E-02   0.0000000000E+00  -0.2363754112E-02   0.0000000000E+00   0.0000000000E+00   0.0000000000E+00   0.8174753273E+00   0.6064732512E-10   0.6064739088E-10  -0.9683346019E-16   0.8436879216E-16  -0.1205733100E-16
   0.1005000000E+01   0.9976362459E+00   0.9976362459E+00   0.5000000000E-02  -0.2363754112E-02  -0.2363754112E-02   0.0000000000E+00   0.0000000000E+00   0.0000000000E+00   0.8174753272E+00   0.6064576941E-10   0.6064573653E-10  -0.7251968245E-16  -0.1503538047E-15  -0.2719696796E-16
   0.0000000000E+00   0.9976362459E+00   0.9976362459E+00   0.0000000000E+00  -0.2363754112E-02  -0.2363754112E-02   0.0000000000E+00   0.0000000000E+00   0.0000000000E+00   0.8174753273E+00   0.6064834679E-10   0.6064835765E-10   0.2070944713E-16   0.1109103480E-15  -0.1459686601E-17
   0.2010000000E+01   0.0000000000E+00  -0.8998917763E-18   0.1000000000E-01   0.0000000000E+00  -0.8998917763E-18   0.0000000000E+00   0.0000000000E+00   0.0000000000E+00   0.8174753274E+00   0.6064776618E-10   0.6064768399E-10  -0.2986113196E-17  -0.1063561013E-15  -0.4515836093E-16
   0.2010000000E+01   0.9976362459E+00  -0.1549644502E-17   0.1000000000E-01  -0.2363754112E-02  -0.1549644502E-17   0.0000000000E+00   0.0000000000E+00   0.0000000000E+00   0.8174753273E+00   0.6065005715E-10   0.6065009648E-10   0.3528131912E-16  -0.1520526586E-15  -0.4045398664E-16
   0.2010000000E+01   0.0000000000E+00   0.9976362459E+00   0.1000000000E-01   0.0000000000E+00  -0.2363754112E-02   0.0000000000E+00   0.0000000000E+00   0.0000000000E+00   0.8174753273E+00   0.6064875034E-10   0.6064852985E-10   0.5902374565E-17  -0.1982445543E-15   0.4357420892E-16
   0.2010000000E+01   0.9976362459E+00   0.9976362459E+00   0.1000000000E-01  -0.2363754112E-02  -0.2363754112E-02   0.0000000000E+00   0.0000000000E+00   0.0000000000E+00   0.8174753272E+00   0.6064701144E-10   0.6064716262E-10   0.3908024524E-17   0.2564237605E-15  -0.2002226293E-16
     1     2     3     4     5     6     7     8
     2     9    10     3     6    11    12     7
 VARIABLES = X,Y,Z,DU1,DU2,DU3,U1,U2,U3,S11,S22,S33,S12,S13,S23
 ZONE, T="0.2000D+01" F=FEPOINT, I=   12 J=    2 ET=BRICK
   0.0000000000E+00   0.0000000000E+00   0.0000000000E+00   0.0000000000E+00   0.0000000000E+00   0.0000000000E+00   0.0000000000E+00   0.0000000000E+00   0.0000000000E+00   0.9988341481E+00   0.1016487206E-13   0.1016148348E-13  -0.3522579747E-17  -0.3496924906E-16  -0.8181977016E-16
   0.1010000000E+01   0.0000000000E+00  -0.1965126674E-18   0.5000000000E-02   0.0000000000E+00   0.2071289575E-18   0.5000000000E-02   0.0000000000E+00  -0.4036416249E-18   0.9988341481E+00   0.7631026057E-14   0.7669873338E-14  -0.5059323819E-16  -0.2581255267E-16   0.2116445189E-16
   0.1010000000E+01   0.9951664724E+00   0.2038868662E-18   0.5000000000E-02  -0.2469773530E-02   0.2427039587E-18   0.5000000000E-02  -0.2363754112E-02  -0.3881709242E-19   0.9988341480E+00   0.7889660730E-14   0.7951984947E-14  -0.3803871588E-16  -0.3085336381E-16   0.7254146146E-16
   0.0000000000E+00   0.9951664724E+00  -0.2022268054E-17   0.0000000000E+00  -0.2469773530E-02  -0.1930893975E-17   0.0000000000E+00  -0.2363754112E-02  -0.9137407862E-19   0.9988341480E+00   0.6935996352E-14   0.7204052134E-14   0.2244080803E-16   0.1000764261E-15  -0.4845407236E-16
   0.0000000000E+00   0.0000000000E+00   0.9951664724E+00   0.0000000000E+00   0.0000000000E+00  -0.2469773530E-02   0.0000000000E+00   0.0000000000E+00  -0.2363754112E-02   0.9988341480E+00   0.6041794635E-14   0.6264225927E-14  -0.1471916763E-16  -0.3739937455E-17  -0.1766636998E-17
   0.1010000000E+01   0.0000000000E+00   0.9951664724E+00   0.5000000000E-02   0.0000000000E+00  -0.2469773530E-02   0.5000000000E-02   0.0000000000E+00  -0.2363754112E-02   0.9988341480E+00   0.1266363237E-13   0.1262478510E-13  -0.9355727317E-16   0.1169083658E-16  -0.1431915769E-16
   0.1010000000E+01   0.9951664724E+00   0.9951664724E+00   0.5000000000E-02  -0.2469773530E-02  -0.2469773530E-02   0.5000000000E-02  -0.2363754112E-02  -0.2363754112E-02   0.9988341479E+00   0.6930454556E-14   0.6955747421E-14  -0.1045930943E-15  -0.1316422377E-15   0.5054946542E-17
   0.0000000000E+00   0.9951664724E+00   0.9951664724E+00   0.0000000000E+00  -0.2469773530E-02  -0.2469773530E-02   0.0000000000E+00  -0.2363754112E-02  -0.2363754112E-02   0.9988341479E+00   0.1375312880E-13   0.1360476020E-13   0.1898282068E-16   0.7407896542E-16   0.4396173174E-17
   0.2020000000E+01   0.0000000000E+00   0.1185179823E-17   0.1000000000E-01   0.0000000000E+00   0.2085071599E-17   0.1000000000E-01   0.0000000000E+00  -0.8998917763E-18   0.9988341481E+00   0.1135936602E-13   0.1131216889E-13   0.1556688246E-16  -0.1840726756E-15  -0.3072880998E-16
   0.2020000000E+01   0.9951664724E+00   0.6697722650E-18   0.1000000000E-01  -0.2469773530E-02   0.2219416767E-17   0.1000000000E-01  -0.2363754112E-02  -0.1549644502E-17   0.9988341479E+00   0.1353022542E-13   0.1369033250E-13  -0.9605840215E-17   0.2283665521E-15   0.3625259693E-16
   0.2020000000E+01   0.0000000000E+00   0.9951664724E+00   0.1000000000E-01   0.0000000000E+00  -0.2469773530E-02   0.1000000000E-01   0.0000000000E+00  -0.2363754112E-02   0.9988341479E+00   0.8184627299E-14   0.8188015887E-14  -0.6826574948E-17  -0.1528982155E-16  -0.3904910222E-16
   0.2020000000E+01   0.9951664724E+00   0.9951664724E+00   0.1000000000E-01  -0.2469773530E-02  -0.2469773530E-02   0.1000000000E-01  -0.2363754112E-02  -0.2363754112E-02   0.9988341478E+00   0.6369966282E-14   0.6090172041E-14   0.4111230692E-16   0.1303728032E-15   0.2195163339E-16
     1     2     3     4     5     6     7     8
     2     9    10     3     6    11    12     7
 VARIABLES = X,Y,Z,DU1,DU2,DU3,U1,U2,U3,S11,S22,S33,S12,S13,S23
 ZONE, T="0.3000D+01" F=FEPOINT, I=   12 J=    2 ET=BRICK
   0.0000000000E+00   0.0000000000E+00   0.0000000000E+00   0.0000000000E+00   0.0000000000E+00   0.0000000000E+00   0.0000000000E+00   0.0000000000E+00   0.0000000000E+00   0.1040574274E+01   0.1697767952E-07   0.1697767966E-07  -0.2325612574E-17  -0.2596605330E-15  -0.4415535996E-16
   0.1015000000E+01   0.0000000000E+00  -0.1122732272E-16   0.5000000000E-02   0.0000000000E+00  -0.1103081005E-16   0.1000000000E-01   0.0000000000E+00  -0.1965126674E-18   0.1040574274E+01   0.1697767927E-07   0.1697767922E-07   0.3305673296E-16   0.2911296345E-15   0.2503445623E-16
   0.1015000000E+01   0.9926734291E+00  -0.1063066527E-16   0.5000000000E-02  -0.2493043307E-02  -0.1083455214E-16   0.1000000000E-01  -0.4833527642E-02   0.2038868662E-18   0.1040574273E+01   0.1697768746E-07   0.1697768754E-07   0.6727225773E-16   0.1126207741E-15  -0.4684391068E-16
   0.0000000000E+00   0.9926734291E+00  -0.1819662173E-17   0.0000000000E+00  -0.2493043307E-02   0.2026058809E-18   0.0000000000E+00  -0.4833527642E-02  -0.2022268054E-17   0.1040574274E+01   0.1697768505E-07   0.1697768495E-07   0.6957363405E-16  -0.2004629914E-15   0.1775159995E-16
   0.0000000000E+00   0.0000000000E+00   0.9926734291E+00   0.0000000000E+00   0.0000000000E+00  -0.2493043307E-02   0.0000000000E+00   0.0000000000E+00  -0.4833527642E-02   0.1040574274E+01   0.1697767799E-07   0.1697767799E-07  -0.1361140999E-16  -0.2410478524E-15  -0.5259390048E-16
   0.1015000000E+01   0.0000000000E+00   0.9926734291E+00   0.5000000000E-02   0.0000000000E+00  -0.2493043307E-02   0.1000000000E-01   0.0000000000E+00  -0.4833527642E-02   0.1040574273E+01   0.1697768461E-07   0.1697768468E-07  -0.9855774390E-16   0.3601261932E-15   0.1432386946E-16
   0.1015000000E+01   0.9926734291E+00   0.9926734291E+00   0.5000000000E-02  -0.2493043307E-02  -0.2493043307E-02   0.1000000000E-01  -0.4833527642E-02  -0.4833527642E-02   0.1040574273E+01   0.1697767752E-07   0.1697767749E-07  -0.1425812425E-15   0.1184401841E-15   0.2122525509E-16
   0.0000000000E+00   0.9926734291E+00   0.9926734291E+00   0.0000000000E+00  -0.2493043307E-02  -0.2493043307E-02   0.0000000000E+00  -0.4833527642E-02  -0.4833527642E-02   0.1040574273E+01   0.1697768235E-07   0.1697768219E-07   0.2966005053E-16  -0.1562876017E-15  -0.5149099185E-17
   0.2030000000E+01   0.0000000000E+00  -0.1861900042E-16   0.1000000000E-01   0.0000000000E+00  -0.1980418024E-16   0.2000000000E-01   0.0000000000E+00   0.1185179823E-17   0.1040574274E+01   0.1697768738E-07   0.1697768739E-07  -0.3634152166E-16  -0.2356846329E-15  -0.6967444599E-16
   0.2030000000E+01   0.9926734291E+00  -0.2129225248E-16   0.1000000000E-01  -0.2493043307E-02  -0.2196202475E-16   0.2000000000E-01  -0.4833527642E-02   0.6697722650E-18   0.1040574273E+01   0.1697767832E-07   0.1697767836E-07  -0.8836111432E-16  -0.6993494409E-16   0.7834632917E-16
   0.2030000000E+01   0.0000000000E+00   0.9926734291E+00   0.1000000000E-01   0.0000000000E+00  -0.2493043307E-02   0.2000000000E-01   0.0000000000E+00  -0.4833527642E-02   0.1040574273E+01   0.1697767921E-07   0.1697767914E-07   0.4609656339E-18  -0.3339985176E-15  -0.5710543723E-16
   0.2030000000E+01   0.9926734291E+00   0.9926734291E+00   0.1000000000E-01  -0.2493043307E-02  -0.2493043307E-02   0.2000000000E-01  -0.4833527642E-02  -0.4833527642E-02   0.1040574273E+01   0.1697767622E-07   0.1697767607E-07   0.5033880649E-16  -0.2315488674E-15  -0.2913901715E-17
     1     2     3     4     5     6     7     8
     2     9    10     3     6    11    12     7
 VARIABLES = X,Y,Z,DU1,DU2,DU3,U1,U2,U3,S11,S22,S33,S12,S13,S23
 ZONE, T="0.4000D+01" F=FEPOINT, I=   12 J=    2 ET=BRICK
   0.0000000000E+00   0.0000000000E+00   0.0000000000E+00   0.0000000000E+00   0.0000000000E+00   0.0000000000E+00   0.0000000000E+00   0.0000000000E+00   0.0000000000E+00   0.1071133965E+01   0.6273055877E-10   0.6273064597E-10  -0.3312689262E-17   0.2045164072E-15   0.1345442751E-16
   0.1020000000E+01   0.0000000000E+00   0.1020974025E-16   0.5000000000E-02   0.0000000000E+00   0.2143706297E-16   0.1500000000E-01   0.0000000000E+00  -0.1122732272E-16   0.1071133965E+01   0.6273260742E-10   0.6273256070E-10  -0.2072916290E-16  -0.8909739805E-16  -0.1106396615E-16
   0.1020000000E+01   0.9901785223E+00   0.9142712649E-17   0.5000000000E-02  -0.2494906724E-02   0.1977337792E-16   0.1500000000E-01  -0.7326570949E-02  -0.1063066527E-16   0.1071133965E+01   0.6274437072E-10   0.6274435816E-10  -0.1175760677E-15   0.1417697812E-16  -0.1302208840E-16
   0.0000000000E+00   0.9901785223E+00   0.1999957362E-17   0.0000000000E+00  -0.2494906724E-02   0.3819619535E-17   0.0000000000E+00  -0.7326570949E-02  -0.1819662173E-17   0.1071133965E+01   0.6274279829E-10   0.6274291513E-10  -0.1017196478E-15   0.1344029703E-15  -0.1941114798E-17
   0.0000000000E+00   0.0000000000E+00   0.9901785223E+00   0.0000000000E+00   0.0000000000E+00  -0.2494906724E-02   0.0000000000E+00   0.0000000000E+00  -0.7326570949E-02   0.1071133965E+01   0.6274337779E-10   0.6274343080E-10   0.9923713390E-17   0.7373367480E-16   0.5896647249E-16
   0.1020000000E+01   0.0000000000E+00   0.9901785223E+00   0.5000000000E-02   0.0000000000E+00  -0.2494906724E-02   0.1500000000E-01   0.0000000000E+00  -0.7326570949E-02   0.1071133965E+01   0.6273749716E-10   0.6273754387E-10  -0.4239410449E-16  -0.1749223497E-15  -0.2540425838E-16
   0.1020000000E+01   0.9901785223E+00   0.9901785223E+00   0.5000000000E-02  -0.2494906724E-02  -0.2494906724E-02   0.1500000000E-01  -0.7326570949E-02  -0.7326570949E-02   0.1071133965E+01   0.6273504239E-10   0.6273505493E-10  -0.5456581174E-16  -0.7849822033E-16   0.9127795287E-17
   0.0000000000E+00   0.9901785223E+00   0.9901785223E+00   0.0000000000E+00  -0.2494906724E-02  -0.2494906724E-02   0.0000000000E+00  -0.7326570949E-02  -0.7326570949E-02   0.1071133965E+01   0.6273315098E-10   0.6273320856E-10  -0.6251198567E-16  -0.3747043313E-16  -0.5649197306E-16
   0.2040000000E+01   0.0000000000E+00   0.1744452792E-16   0.1000000000E-01   0.0000000000E+00   0.3606352835E-16   0.3000000000E-01   0.0000000000E+00  -0.1861900042E-16   0.1071133965E+01   0.6273941813E-10   0.6273967966E-10  -0.2685415439E-16   0.2069719102E-15  -0.1235685273E-16
   0.2040000000E+01   0.9901785223E+00   0.1670209588E-16   0.1000000000E-01  -0.2494906724E-02   0.3799434836E-16   0.3000000000E-01  -0.7326570949E-02  -0.2129225248E-16   0.1071133965E+01   0.6271706492E-10   0.6271704160E-10  -0.9014631393E-16   0.1118465732E-15   0.2756220885E-16
   0.2040000000E+01   0.0000000000E+00   0.9901785223E+00   0.1000000000E-01   0.0000000000E+00  -0.2494906724E-02   0.3000000000E-01   0.0000000000E+00  -0.7326570949E-02   0.1071133965E+01   0.6273935434E-10   0.6273895264E-10  -0.3682227724E-16   0.2797275696E-16   0.6387640089E-17
   0.2040000000E+01   0.9901785223E+00   0.9901785223E+00   0.1000000000E-01  -0.2494906724E-02  -0.2494906724E-02   0.3000000000E-01  -0.7326570949E-02  -0.7326570949E-02   0.1071133965E+01   0.6274708699E-10   0.6274693590E-10  -0.5285232147E-16   0.5766712362E-17   0.5367456655E-16
     1     2     3     4     5     6     7     8
     2     9    10     3     6    11    12     7
 VARIABLES = X,Y,Z,DU1,DU2,DU3,U1,U2,U3,S11,S22,S33,S12,S13,S23
 ZONE, T="0.5000D+01" F=FEPOINT, I=   12 J=    2 ET=BRICK
   0.0000000000E+00   0.0000000000E+00   0.0000000000E+00   0.0000000000E+00   0.0000000000E+00   0.0000000000E+00   0.0000000000E+00   0.0000000000E+00   0.0000000000E+00   0.1095423483E+01   0.1288848397E-10   0.1288825976E-10   0.8966206989E-17   0.2232665837E-15   0.2579227644E-16
   0.1025000000E+01   0.0000000000E+00   0.1583674016E-16   0.5000000000E-02   0.0000000000E+00   0.5626999904E-17   0.2000000000E-01   0.0000000000E+00   0.1020974025E-16   0.1095423483E+01   0.1288687167E-10   0.1288692635E-10   0.8575638049E-16   0.1095384059E-16  -0.1399104060E-16
   0.1025000000E+01   0.9876825706E+00   0.1615997203E-16   0.5000000000E-02  -0.2495951747E-02   0.7017259378E-17   0.2000000000E-01  -0.9821477673E-02   0.9142712649E-17   0.1095423483E+01   0.1288883288E-10   0.1288888593E-10  -0.1072606918E-15   0.3549608903E-16  -0.1389861183E-16
   0.0000000000E+00   0.9876825706E+00   0.3653230266E-17   0.0000000000E+00  -0.2495951747E-02   0.1653272905E-17   0.0000000000E+00  -0.9821477673E-02   0.1999957362E-17   0.1095423483E+01   0.1287928911E-10   0.1287934328E-10  -0.1814669478E-15   0.2241294729E-15   0.5049146505E-16
   0.0000000000E+00   0.0000000000E+00   0.9876825706E+00   0.0000000000E+00   0.0000000000E+00  -0.2495951747E-02   0.0000000000E+00   0.0000000000E+00  -0.9821477673E-02   0.1095423483E+01   0.1288251237E-10   0.1288290963E-10   0.8674843994E-17  -0.5371900115E-16   0.4942861095E-17
   0.1025000000E+01   0.0000000000E+00   0.9876825706E+00   0.5000000000E-02   0.0000000000E+00  -0.2495951747E-02   0.2000000000E-01   0.0000000000E+00  -0.9821477673E-02   0.1095423483E+01   0.1289494542E-10   0.1289499419E-10   0.1548489093E-15  -0.2588685886E-15   0.7890402080E-16
   0.1025000000E+01   0.9876825706E+00   0.9876825706E+00   0.5000000000E-02  -0.2495951747E-02  -0.2495951747E-02   0.2000000000E-01  -0.9821477673E-02  -0.9821477673E-02   0.1095423483E+01   0.1288798761E-10   0.1288804229E-10  -0.3214187546E-16  -0.1952915904E-15  -0.6898567029E-16
   0.0000000000E+00   0.9876825706E+00   0.9876825706E+00   0.0000000000E+00  -0.2495951747E-02  -0.2495951747E-02   0.0000000000E+00  -0.9821477673E-02  -0.9821477673E-02   0.1095423483E+01   0.1289045174E-10   0.1289030393E-10  -0.2262194510E-15   0.5066119967E-16   0.2802538828E-16
   0.2050000000E+01   0.0000000000E+00   0.3372950616E-16   0.1000000000E-01   0.0000000000E+00   0.1628497824E-16   0.4000000000E-01   0.0000000000E+00   0.1744452792E-16   0.1095423483E+01   0.1288037662E-10   0.1288031326E-10  -0.4125435096E-16   0.5301185195E-17  -0.1104485446E-16
   0.2050000000E+01   0.9876825706E+00   0.3209665380E-16   0.1000000000E-01  -0.2495951747E-02   0.1539455792E-16   0.4000000000E-01  -0.9821477673E-02   0.1670209588E-16   0.1095423483E+01   0.1289111564E-10   0.1289093852E-10  -0.2592114966E-15   0.1514876490E-15  -0.3315572207E-16
   0.2050000000E+01   0.0000000000E+00   0.9876825706E+00   0.1000000000E-01   0.0000000000E+00  -0.2495951747E-02   0.4000000000E-01   0.0000000000E+00  -0.9821477673E-02   0.1095423483E+01   0.1288450488E-10   0.1288443432E-10   0.4622261440E-16  -0.4720697595E-16  -0.6258087851E-16
   0.2050000000E+01   0.9876825706E+00   0.9876825706E+00   0.1000000000E-01  -0.2495951747E-02  -0.2495951747E-02   0.4000000000E-01  -0.9821477673E-02  -0.9821477673E-02   0.1095423483E+01   0.1287007959E-10   0.1286993984E-10  -0.1110865120E-15   0.2368366782E-15   0.4162609339E-16
     1     2     3     4     5     6     7     8
     2     9    10     3     6    11    12     7
 VARIABLES = X,Y,Z,DU1,DU2,DU3,U1,U2,U3,S11,S22,S33,S12,S13,S23
 ZONE, T="0.6000D+01" F=FEPOINT, I=   12 J=    2 ET=BRICK
   0.0000000000E+00   0.0000000000E+00   0.0000000000E+00   0.0000000000E+00   0.0000000000E+00   0.0000000000E+00   0.0000000000E+00   0.0000000000E+00   0.0000000000E+00   0.1115661125E+01   0.3799545705E-11   0.3799648460E-11  -0.4740615280E-17  -0.1245056849E-16  -0.5887948913E-16
   0.1030000000E+01   0.0000000000E+00   0.3317800790E-18   0.5000000000E-02   0.0000000000E+00  -0.1550496008E-16   0.2500000000E-01   0.0000000000E+00   0.1583674016E-16   0.1115661125E+01   0.3795124825E-11   0.3795147455E-11  -0.4650196442E-16  -0.1567209524E-15  -0.3043308593E-16
   0.1030000000E+01   0.9851859435E+00  -0.9033080422E-18   0.5000000000E-02  -0.2496627060E-02  -0.1706328007E-16   0.2500000000E-01  -0.1231742942E-01   0.1615997203E-16   0.1115661125E+01   0.3793241868E-11   0.3793255864E-11   0.1018888109E-15  -0.2152891710E-15   0.1589867969E-16
   0.0000000000E+00   0.9851859435E+00  -0.5935924349E-17   0.0000000000E+00  -0.2496627060E-02  -0.9589154615E-17   0.0000000000E+00  -0.1231742942E-01   0.3653230266E-17   0.1115661125E+01   0.3805648959E-11   0.3805835828E-11   0.8664663845E-16   0.8786922507E-16  -0.4575338977E-16
   0.0000000000E+00   0.0000000000E+00   0.9851859435E+00   0.0000000000E+00   0.0000000000E+00  -0.2496627060E-02   0.0000000000E+00   0.0000000000E+00  -0.1231742942E-01   0.1115661125E+01   0.3794881490E-11   0.3794625884E-11  -0.1568309273E-16   0.2631427116E-15   0.1327528217E-16
   0.1030000000E+01   0.0000000000E+00   0.9851859435E+00   0.5000000000E-02   0.0000000000E+00  -0.2496627060E-02   0.2500000000E-01   0.0000000000E+00  -0.1231742942E-01   0.1115661125E+01   0.3809926756E-11   0.3809893325E-11  -0.1033991858E-15  -0.9499803999E-16  -0.5138906927E-16
   0.1030000000E+01   0.9851859435E+00   0.9851859435E+00   0.5000000000E-02  -0.2496627060E-02  -0.2496627060E-02   0.2500000000E-01  -0.1231742942E-01  -0.1231742942E-01   0.1115661125E+01   0.3798739495E-11   0.3798803203E-11  -0.9174168381E-16  -0.1262703379E-15   0.5495675986E-16
   0.0000000000E+00   0.9851859435E+00   0.9851859435E+00   0.0000000000E+00  -0.2496627060E-02  -0.2496627060E-02   0.0000000000E+00  -0.1231742942E-01  -0.1231742942E-01   0.1115661125E+01   0.3797612323E-11   0.3797429005E-11   0.1521098816E-15   0.1312318783E-15  -0.5982176595E-16
   0.2060000000E+01   0.0000000000E+00  -0.3861042766E-18   0.1000000000E-01   0.0000000000E+00  -0.3411561044E-16   0.5000000000E-01   0.0000000000E+00   0.3372950616E-16   0.1115661125E+01   0.3793159331E-11   0.3793296244E-11  -0.2573895067E-16   0.1962617356E-15   0.9353720753E-16
   0.2060000000E+01   0.9851859435E+00   0.5868289353E-17   0.1000000000E-01  -0.2496627060E-02  -0.2622836445E-16   0.5000000000E-01  -0.1231742942E-01   0.3209665380E-16   0.1115661125E+01   0.3821705350E-11   0.3821563823E-11   0.7617840086E-16   0.3302741470E-16  -0.3585707230E-16
   0.2060000000E+01   0.0000000000E+00   0.9851859435E+00   0.1000000000E-01   0.0000000000E+00  -0.2496627060E-02   0.5000000000E-01   0.0000000000E+00  -0.1231742942E-01   0.1115661125E+01   0.3793243453E-11   0.3793190393E-11   0.1288069545E-16   0.2319444941E-15   0.6930976041E-16
   0.2060000000E+01   0.9851859435E+00   0.9851859435E+00   0.1000000000E-01  -0.2496627060E-02  -0.2496627060E-02   0.5000000000E-01  -0.1231742942E-01  -0.1231742942E-01   0.1115661125E+01   0.3797155044E-11   0.3797271418E-11   0.1348413136E-15   0.2713812404E-15  -0.8174328953E-16
     1     2     3     4     5     6     7     8
     2     9    10     3     6    11    12     7
 VARIABLES = X,Y,Z,DU1,DU2,DU3,U1,U2,U3,S11,S22,S33,S12,S13,S23
 ZONE, T="0.7000D+01" F=FEPOINT, I=   12 J=    2 ET=BRICK
   0.0000000000E+00   0.0000000000E+00   0.0000000000E+00   0.0000000000E+00   0.0000000000E+00   0.0000000000E+00   0.0000000000E+00   0.0000000000E+00   0.0000000000E+00   0.1133053217E+01   0.1403357624E-11   0.1403375240E-11   0.2647353041E-17   0.1237149418E-16  -0.5342676695E-16
   0.1035000000E+01   0.0000000000E+00   0.8204059257E-18   0.5000000000E-02   0.0000000000E+00   0.4886258467E-18   0.3000000000E-01   0.0000000000E+00   0.3317800790E-18   0.1133053216E+01   0.1393433934E-11   0.1393517787E-11   0.9683883452E-16   0.8552271226E-16   0.1547144024E-16
   0.1035000000E+01   0.9826888422E+00  -0.5279941878E-18   0.5000000000E-02  -0.2497101318E-02   0.3753138544E-18   0.3000000000E-01  -0.1481405648E-01  -0.9033080422E-18   0.1133053216E+01   0.1393728617E-11   0.1393593446E-11   0.1839496192E-16  -0.1099577267E-16   0.3107054163E-17
   0.0000000000E+00   0.9826888422E+00  -0.1475570182E-17   0.0000000000E+00  -0.2497101318E-02   0.4460354168E-17   0.0000000000E+00  -0.1481405648E-01  -0.5935924349E-17   0.1133053216E+01   0.1388520405E-11   0.1388407028E-11  -0.1046275813E-15   0.5989229163E-16   0.7959003149E-17
   0.0000000000E+00   0.0000000000E+00   0.9826888422E+00   0.0000000000E+00   0.0000000000E+00  -0.2497101318E-02   0.0000000000E+00   0.0000000000E+00  -0.1481405648E-01   0.1133053216E+01   0.1402677269E-11   0.1402732946E-11   0.8485700358E-18  -0.7579981214E-16   0.1015772161E-15
   0.1035000000E+01   0.0000000000E+00   0.9826888422E+00   0.5000000000E-02   0.0000000000E+00  -0.2497101318E-02   0.3000000000E-01   0.0000000000E+00  -0.1481405648E-01   0.1133053216E+01   0.1390836691E-11   0.1390588817E-11   0.4800358353E-16   0.3619721770E-16  -0.3969286165E-16
   0.1035000000E+01   0.9826888422E+00   0.9826888422E+00   0.5000000000E-02  -0.2497101318E-02  -0.2497101318E-02   0.3000000000E-01  -0.1481405648E-01  -0.1481405648E-01   0.1133053216E+01   0.1403842273E-11   0.1404103898E-11   0.1136759539E-17  -0.5128882184E-16   0.5676304800E-17
   0.0000000000E+00   0.9826888422E+00   0.9826888422E+00   0.0000000000E+00  -0.2497101318E-02  -0.2497101318E-02   0.0000000000E+00  -0.1481405648E-01  -0.1481405648E-01   0.1133053216E+01   0.1400058313E-11   0.1400028295E-11  -0.6271941137E-16  -0.1398590057E-15  -0.5435643501E-17
   0.2070000000E+01   0.0000000000E+00  -0.5022645263E-18   0.1000000000E-01   0.0000000000E+00  -0.1161602497E-18   0.6000000000E-01   0.0000000000E+00  -0.3861042766E-18   0.1133053216E+01   0.1392308410E-11   0.1392293491E-11   0.1949031541E-16  -0.6223296285E-16  -0.2051929915E-16
   0.2070000000E+01   0.9826888422E+00  -0.1062614930E-17   0.1000000000E-01  -0.2497101318E-02  -0.6930904283E-17   0.6000000000E-01  -0.1481405648E-01   0.5868289353E-17   0.1133053216E+01   0.1423199265E-11   0.1423207308E-11  -0.1451021709E-15   0.7783624714E-16   0.2996857711E-16
   0.2070000000E+01   0.0000000000E+00   0.9826888422E+00   0.1000000000E-01   0.0000000000E+00  -0.2497101318E-02   0.6000000000E-01   0.0000000000E+00  -0.1481405648E-01   0.1133053216E+01   0.1402807737E-11   0.1402872132E-11  -0.9625216850E-16  -0.9541790011E-16   0.2407691582E-16
   0.2070000000E+01   0.9826888422E+00   0.9826888422E+00   0.1000000000E-01  -0.2497101318E-02  -0.2497101318E-02   0.6000000000E-01  -0.1481405648E-01  -0.1481405648E-01   0.1133053216E+01   0.1374791042E-11   0.1374728489E-11   0.2652049412E-17  -0.2246876612E-16  -0.3586204351E-16
     1     2     3     4     5     6     7     8
     2     9    10     3     6    11    12     7
 VARIABLES = X,Y,Z,DU1,DU2,DU3,U1,U2,U3,S11,S22,S33,S12,S13,S23
 ZONE, T="0.8000D+01" F=FEPOINT, I=   12 J=    2 ET=BRICK
   0.0000000000E+00   0.0000000000E+00   0.0000000000E+00   0.0000000000E+00   0.0000000000E+00   0.0000000000E+00   0.0000000000E+00   0.0000000000E+00   0.0000000000E+00   0.1148331417E+01   0.6072194266E-12   0.6071064804E-12  -0.1531970417E-16  -0.4599145611E-16  -0.7115141716E-16
   0.1040000000E+01   0.0000000000E+00  -0.1327044421E-18   0.5000000000E-02   0.0000000000E+00  -0.9531103678E-18   0.3500000000E-01   0.0000000000E+00   0.8204059257E-18   0.1148331417E+01   0.5777955018E-12   0.5778060613E-12   0.5386451501E-16   0.1005637004E-16  -0.9917999228E-17
   0.1040000000E+01   0.9801913886E+00   0.1344708713E-17   0.5000000000E-02  -0.2497453633E-02   0.1872702900E-17   0.3500000000E-01  -0.1731115780E-01  -0.5279941878E-18   0.1148331417E+01   0.6094153334E-12   0.6094336230E-12   0.6579228280E-16  -0.1679208909E-15   0.5945100250E-18
   0.0000000000E+00   0.9801913886E+00  -0.6731159450E-17   0.0000000000E+00  -0.2497453633E-02  -0.5255589268E-17   0.0000000000E+00  -0.1731115780E-01  -0.1475570182E-17   0.1148331417E+01   0.5841639675E-12   0.5841836718E-12  -0.2835804399E-16   0.1150047537E-15  -0.5346316866E-16
   0.0000000000E+00   0.0000000000E+00   0.9801913886E+00   0.0000000000E+00   0.0000000000E+00  -0.2497453633E-02   0.0000000000E+00   0.0000000000E+00  -0.1731115780E-01   0.1148331417E+01   0.5968794433E-12   0.5967520725E-12  -0.1324817705E-16   0.2287936252E-16  -0.7349449878E-17
   0.1040000000E+01   0.0000000000E+00   0.9801913886E+00   0.5000000000E-02   0.0000000000E+00  -0.2497453633E-02   0.3500000000E-01   0.0000000000E+00  -0.1731115780E-01   0.1148331417E+01   0.6060949033E-12   0.6061343120E-12  -0.7024875934E-16   0.8943582501E-16   0.6223061936E-16
   0.1040000000E+01   0.9801913886E+00   0.9801913886E+00   0.5000000000E-02  -0.2497453633E-02  -0.2497453633E-02   0.3500000000E-01  -0.1731115780E-01  -0.1731115780E-01   0.1148331417E+01   0.5995172049E-12   0.5994278281E-12  -0.8504086454E-16  -0.1370884669E-15  -0.6055034996E-17
   0.0000000000E+00   0.9801913886E+00   0.9801913886E+00   0.0000000000E+00  -0.2497453633E-02  -0.2497453633E-02   0.0000000000E+00  -0.1731115780E-01  -0.1731115780E-01   0.1148331417E+01   0.5929227484E-12   0.5929962859E-12   0.4215562461E-16   0.6063337455E-16   0.2856380488E-16
   0.2080000000E+01   0.0000000000E+00   0.5246071983E-17   0.1000000000E-01   0.0000000000E+00   0.5748336509E-17   0.7000000000E-01   0.0000000000E+00  -0.5022645263E-18   0.1148331417E+01   0.5827433976E-12   0.5827352884E-12  -0.5133109762E-16  -0.4348289901E-16  -0.5862219450E-16
   0.2080000000E+01   0.9801913886E+00   0.5551924731E-18   0.1000000000E-01  -0.2497453633E-02   0.1617807403E-17   0.7000000000E-01  -0.1731115780E-01  -0.1062614930E-17   0.1148331417E+01   0.6130603932E-12   0.6130618079E-12  -0.9557635856E-16   0.9969729222E-16   0.8414780294E-16
   0.2080000000E+01   0.0000000000E+00   0.9801913886E+00   0.1000000000E-01   0.0000000000E+00  -0.2497453633E-02   0.7000000000E-01   0.0000000000E+00  -0.1731115780E-01   0.1148331417E+01   0.6251289479E-12   0.6251198031E-12  -0.8066112082E-17  -0.1381050888E-15  -0.5309639344E-16
   0.2080000000E+01   0.9801913886E+00   0.9801913886E+00   0.1000000000E-01  -0.2497453633E-02  -0.2497453633E-02   0.7000000000E-01  -0.1731115780E-01  -0.1731115780E-01   0.1148331417E+01   0.5776337009E-12   0.5776389807E-12   0.1266467624E-15   0.1840094071E-15   0.5379358455E-16
     1     2     3     4     5     6     7     8
     2     9    10     3     6    11    12     7
 VARIABLES = X,Y,Z,DU1,DU2,DU3,U1,U2,U3,S11,S22,S33,S12,S13,S23
 ZONE, T="0.9000D+01" F=FEPOINT, I=   12 J=    2 ET=BRICK
   0.0000000000E+00   0.0000000000E+00   0.0000000000E+00   0.0000000000E+00   0.0000000000E+00   0.0000000000E+00   0.0000000000E+00   0.0000000000E+00   0.0000000000E+00   0.1161974161E+01   0.2840384636E-12   0.2840727134E-12   0.3556496853E-17   0.5781982511E-16   0.1200859623E-15