 VARIABLES = X,Y,DU1,DU2,U1,U2,S11,S22,S12
 ZONE, T="0.1000D+01" F=FEPOINT, I=  259 J=  457
   0.3802703918E-01   0.1107938023E+00   0.1941201151E-04  -0.3282987469E-04   0.0000000000E+00   0.0000000000E+00   0.5269879183E-01   0.5570588808E-02  -0.6010487336E-02
   0.2024348299E-01   0.9646200080E-01   0.1468901177E-04  -0.3233051595E-04   0.0000000000E+00   0.0000000000E+00   0.7058312759E-01   0.7277489746E-02  -0.8176195341E-02
   0.3972276244E-01   0.9092583787E-01   0.2908839679E-04  -0.2924228052E-04   0.0000000000E+00   0.0000000000E+00   0.6546352299E-01   0.1131332338E-01  -0.1681969127E-01
   0.1082320296E+00   0.2313625561E+00   0.2644377234E-04  -0.3516485853E-04   0.0000000000E+00   0.0000000000E+00   0.3148086920E-01  -0.2069444277E-03   0.1605257006E-02
   0.9828185008E-01   0.2480536797E+00   0.2119252365E-04  -0.3892640651E-04   0.0000000000E+00   0.0000000000E+00   0.3004955504E-01  -0.8055992593E-04   0.7623797148E-03
   0.8841844312E-01   0.2310927596E+00   0.2098553643E-04  -0.3866714709E-04   0.0000000000E+00   0.0000000000E+00   0.2989501120E-01  -0.9687291621E-04   0.1838818474E-02
   0.9148394947E-01   0.7307704090E-01   0.5497542748E-04  -0.1458594200E-04   0.0000000000E+00   0.0000000000E+00   0.1904202982E-01  -0.2523486243E-02  -0.7261753272E-02
   0.7547087448E-01   0.8810233459E-01   0.4355673570E-04  -0.2084923025E-04   0.0000000000E+00   0.0000000000E+00   0.3004351980E-01   0.9478414075E-03  -0.9105454869E-02
   0.7341423930E-01   0.6967606555E-01   0.5407115790E-04  -0.2069231709E-04   0.0000000000E+00   0.0000000000E+00   0.1928168041E-01   0.6039351510E-02  -0.1016869243E-01
   0.1674790061E+00   0.2318234565E+00   0.4411246148E-04  -0.2566909036E-04   0.0000000000E+00   0.0000000000E+00   0.3424261637E-01  -0.2717394330E-03   0.4217632903E-03
   0.1574955669E+00   0.2485327232E+00   0.3880011876E-04  -0.2934553547E-04   0.0000000000E+00   0.0000000000E+00   0.3537236954E-01  -0.4664173315E-04   0.2716030394E-03
   0.1477297539E+00   0.2316926756E+00   0.3807095796E-04  -0.2851478869E-04   0.0000000000E+00   0.0000000000E+00   0.3371558368E-01  -0.2950287661E-03   0.8314729958E-03
   0.1050445123E+00   0.5637368115E-01   0.6457102540E-04  -0.9188814991E-05   0.0000000000E+00   0.0000000000E+00   0.1095177409E-01  -0.5996718575E-02  -0.5446018307E-02
   0.8631965951E-01   0.5478441582E-01   0.6345400012E-04  -0.1545215750E-04   0.0000000000E+00   0.0000000000E+00   0.5530019881E-02  -0.5007858815E-02  -0.2500244717E-02
   0.1018205426E+00   0.1926906239E-01   0.7484032045E-04  -0.4799400208E-05   0.0000000000E+00   0.0000000000E+00  -0.1253079428E-02  -0.1940601075E-01   0.7426882352E-03
   0.1037619413E+00   0.0000000000E+00   0.7523880562E-04   0.0000000000E+00   0.0000000000E+00   0.0000000000E+00   0.1957212600E-02  -0.3629254404E-01  -0.1225041625E-02
   0.1247084707E+00   0.0000000000E+00   0.7750281467E-04   0.0000000000E+00   0.0000000000E+00   0.0000000000E+00  -0.9167465092E-03  -0.1539709981E-01   0.2116473718E-03
   0.1576950742E+00   0.2149577138E+00   0.4318394341E-04  -0.2474904393E-04   0.0000000000E+00   0.0000000000E+00   0.3322397680E-01  -0.7741591685E-03   0.9915267923E-03
   0.1774486237E+00   0.2150734634E+00   0.4912721475E-04  -0.2210861187E-04   0.0000000000E+00   0.0000000000E+00   0.3323757866E-01  -0.6470608772E-03   0.3202386722E-03
   0.1772438864E-01   0.2221911824E+00   0.4126342857E-05  -0.4690115214E-04   0.0000000000E+00   0.0000000000E+00   0.2704582680E-01   0.8272336218E-03   0.7370494146E-03
   0.0000000000E+00   0.2288483168E+00   0.0000000000E+00  -0.4803372350E-04   0.0000000000E+00   0.0000000000E+00   0.2362667542E-01   0.6697529840E-03   0.1704090418E-03
   0.0000000000E+00   0.2101860880E+00   0.0000000000E+00  -0.4627835925E-04   0.0000000000E+00   0.0000000000E+00   0.2823333251E-01   0.1596538116E-02   0.8480308920E-03
   0.0000000000E+00   0.1168929966E+00   0.0000000000E+00  -0.3714004802E-04   0.0000000000E+00   0.0000000000E+00   0.6696620664E-01   0.7023715092E-02  -0.1912841950E-02
   0.0000000000E+00   0.9842501977E-01   0.0000000000E+00  -0.3149962457E-04   0.0000000000E+00   0.0000000000E+00   0.9922800295E-01  -0.1264318748E-02  -0.5107556294E-03
   0.1864511220E-01   0.1227299879E+00   0.8175276058E-05  -0.3684340132E-04   0.0000000000E+00   0.0000000000E+00   0.4882685418E-01   0.6923894184E-02  -0.2026836092E-02
   0.5715471619E-01   0.1004381484E+00   0.3139192580E-04  -0.2726465151E-04   0.0000000000E+00   0.0000000000E+00   0.4121014238E-01   0.2424943622E-02  -0.8722848383E-02
   0.5768130920E-01   0.8187630963E-01   0.4248571004E-04  -0.2541299733E-04   0.0000000000E+00   0.0000000000E+00   0.4083578801E-01   0.1164470838E-01  -0.1687276327E-01
   0.3697482794E-01   0.2131905837E+00   0.9197800863E-05  -0.4450264583E-04   0.0000000000E+00   0.0000000000E+00   0.2863918551E-01   0.1018790195E-02   0.2312495899E-02
   0.5834446109E-01   0.2137997896E+00   0.1468032773E-04  -0.4170714757E-04   0.0000000000E+00   0.0000000000E+00   0.2944689208E-01   0.3081367815E-03   0.3000328936E-02
   0.4906955644E-01   0.2308453139E+00   0.1102542486E-04  -0.4482782298E-04   0.0000000000E+00   0.0000000000E+00   0.2680375409E-01   0.4429759241E-03   0.1769688365E-02
   0.1775188719E-01   0.1436883065E+00   0.6212139837E-05  -0.3933338926E-04   0.0000000000E+00   0.0000000000E+00   0.4207457918E-01   0.6505134950E-02   0.9746448833E-03
   0.0000000000E+00   0.1541923683E+00   0.0000000000E+00  -0.4115263408E-04   0.0000000000E+00   0.0000000000E+00   0.3942408612E-01   0.7348759800E-02   0.1025628712E-02
   0.0000000000E+00   0.1355274889E+00   0.0000000000E+00  -0.3945028195E-04   0.0000000000E+00   0.0000000000E+00   0.4676460976E-01   0.9509173293E-02   0.2626672592E-02
   0.3663414091E-01   0.1325638584E+00   0.1409175419E-04  -0.3588499247E-04   0.0000000000E+00   0.0000000000E+00   0.4514841253E-01   0.6324586543E-02   0.8116149362E-03
   0.3251224448E-01   0.2322387375E+00   0.7092667677E-05  -0.4679655008E-04   0.0000000000E+00   0.0000000000E+00   0.2456911573E-01   0.1616737917E-03   0.1292341423E-02
   0.1962632929E-01   0.2475420347E+00   0.3637683758E-05  -0.4915930531E-04   0.0000000000E+00   0.0000000000E+00   0.2215435848E-01   0.2016825898E-03   0.3561878549E-03
   0.1327063238E+00   0.2139064169E-01   0.7610399698E-04  -0.1517634148E-05   0.0000000000E+00   0.0000000000E+00   0.2477570715E-02  -0.6063109756E-02  -0.2367873350E-02
   0.3340269355E+00   0.0000000000E+00   0.9720509032E-04   0.0000000000E+00   0.0000000000E+00   0.0000000000E+00   0.1674737950E-01   0.4695465414E-02  -0.6773013602E-04
   0.3549999940E+00   0.0000000000E+00   0.1000000000E-03   0.0000000000E+00   0.0000000000E+00   0.0000000000E+00   0.1663076383E-01   0.4667452487E-02   0.3229563233E-04
   0.3549999940E+00   0.1920892803E-01   0.1000000000E-03  -0.4368373714E-06   0.0000000000E+00   0.0000000000E+00   0.1698678077E-01   0.4697213436E-02   0.3138871359E-05
   0.3363009264E+00   0.2614114216E-01   0.9743306808E-04  -0.6111768354E-06   0.0000000000E+00   0.0000000000E+00   0.1722026032E-01   0.4655720063E-02  -0.1814305591E-03
   0.3549999940E+00   0.3841511745E-01   0.1000000000E-03  -0.9284490916E-06   0.0000000000E+00   0.0000000000E+00   0.1757425395E-01   0.4439279958E-02  -0.1659514847E-04
   0.3204971293E+00   0.7683887314E-01   0.9432622658E-04  -0.2333973297E-05   0.0000000000E+00   0.0000000000E+00   0.1968363119E-01   0.3467974289E-02  -0.9234991689E-03
   0.3375908294E+00   0.6711408365E-01   0.9724946777E-04  -0.1906182922E-05   0.0000000000E+00   0.0000000000E+00   0.1910831602E-01   0.3809612195E-02  -0.4036642008E-03
   0.3379383569E+00   0.8641900876E-01   0.9707249753E-04  -0.2769230808E-05   0.0000000000E+00   0.0000000000E+00   0.2042605125E-01   0.3298488269E-02  -0.4563851452E-03
   0.3161424080E+00   0.3577358506E-01   0.9454306042E-04  -0.8666808515E-06   0.0000000000E+00   0.0000000000E+00   0.1723544778E-01   0.4311405404E-02  -0.6293741022E-03
   0.3205413399E+00   0.1593675262E-01   0.9536301880E-04  -0.3645236782E-06   0.0000000000E+00   0.0000000000E+00   0.1669235861E-01   0.4573196245E-02  -0.2465494083E-03
   0.2821155922E+00   0.1794146156E-01   0.9030906378E-04  -0.4058028712E-06   0.0000000000E+00   0.0000000000E+00   0.1592162043E-01   0.4194147119E-02  -0.5653902955E-03
   0.2711214499E+00   0.0000000000E+00   0.8909537818E-04   0.0000000000E+00   0.0000000000E+00   0.0000000000E+00   0.1525979467E-01   0.4140559541E-02  -0.2353876006E-03
   0.2920856445E+00   0.0000000000E+00   0.9171301002E-04   0.0000000000E+00   0.0000000000E+00   0.0000000000E+00   0.1598734234E-01   0.4422500815E-02  -0.1803089062E-03
   0.2397443029E+00   0.1792001081E-01   0.8517855705E-04  -0.3978398820E-06   0.0000000000E+00   0.0000000000E+00   0.1396961573E-01   0.3367453602E-02  -0.1043909071E-02
   0.2501640674E+00   0.0000000000E+00   0.8661460806E-04   0.0000000000E+00   0.0000000000E+00   0.0000000000E+00   0.1423865336E-01   0.3735366323E-02  -0.3228873842E-03
   0.2608922464E+00   0.1800012568E-01   0.8766242762E-04  -0.4038623832E-06   0.0000000000E+00   0.0000000000E+00   0.1506710854E-01   0.3848020946E-02  -0.8020571945E-03
   0.3034548201E+00   0.8647821594E-01   0.9115108225E-04  -0.2834995102E-05   0.0000000000E+00   0.0000000000E+00   0.2031603348E-01   0.2967940554E-02  -0.1424644761E-02
   0.3208545073E+00   0.9605406288E-01   0.9388252582E-04  -0.3306704314E-05   0.0000000000E+00   0.0000000000E+00   0.2113628532E-01   0.2912896404E-02  -0.9731500864E-03
   0.3038066772E+00   0.1056876250E+00   0.9041160451E-04  -0.3945999953E-05   0.0000000000E+00   0.0000000000E+00   0.2190547695E-01   0.2412482718E-02  -0.1468377405E-02
   0.1976614397E+00   0.1781067975E-01   0.8086283346E-04  -0.4171990993E-06   0.0000000000E+00   0.0000000000E+00   0.1072021772E-01   0.1714958064E-02  -0.1717440276E-02
   0.2082798005E+00   0.0000000000E+00   0.8226269061E-04   0.0000000000E+00   0.0000000000E+00   0.0000000000E+00   0.1112252650E-01   0.2399995280E-02  -0.5791398071E-03
   0.2187101570E+00   0.1789001970E-01   0.8289880062E-04  -0.4009839229E-06   0.0000000000E+00   0.0000000000E+00   0.1253031993E-01   0.2678980714E-02  -0.1354213485E-02
   0.1357300681E+00   0.4093105898E-01   0.7271220213E-04  -0.2975130336E-05   0.0000000000E+00   0.0000000000E+00   0.7577293398E-02  -0.6200293385E-02  -0.5806930156E-02
   0.1284219434E+00   0.5963624704E-01   0.6669990856E-04  -0.5398455227E-05   0.0000000000E+00   0.0000000000E+00   0.1291149329E-01  -0.7050641825E-02  -0.7642154356E-02
   0.1165786083E+00   0.3898268230E-01   0.7163702634E-04  -0.4967444060E-05   0.0000000000E+00   0.0000000000E+00   0.3954215574E-02  -0.1027307252E-01  -0.3907590569E-02
   0.1766815216E+00   0.1760691219E-01   0.7913089277E-04  -0.4695721429E-06   0.0000000000E+00   0.0000000000E+00   0.8451868750E-02   0.4189093098E-03  -0.2147862463E-02
   0.1873589535E+00   0.0000000000E+00   0.8051233002E-04   0.0000000000E+00   0.0000000000E+00   0.0000000000E+00   0.8804983774E-02   0.1268874424E-02  -0.8198961623E-03
   0.9590390091E-01   0.3776602795E-01   0.7031898010E-04  -0.1004629308E-04   0.0000000000E+00   0.0000000000E+00  -0.1821913523E-03  -0.1845160518E-01   0.1581868356E-02
   0.3352651346E+00   0.2490929248E+00   0.9419153145E-04  -0.1814150357E-04   0.0000000000E+00   0.0000000000E+00   0.3273207635E-01   0.2847742157E-04  -0.1440108465E-05
   0.3549999940E+00   0.2299868300E+00   0.1000000000E-03  -0.1564803975E-04   0.0000000000E+00   0.0000000000E+00   0.3194942136E-01   0.2009711011E-04  -0.4397788134E-04
   0.3549999940E+00   0.2490941548E+00   0.1000000000E-03  -0.1811690379E-04   0.0000000000E+00   0.0000000000E+00   0.3327105001E-01  -0.1205357172E-03   0.1200268375E-03
   0.3286853036E+00   0.2315604665E+00   0.9244899176E-04  -0.1596961045E-04   0.0000000000E+00   0.0000000000E+00   0.3199170238E-01   0.6251964004E-04  -0.2551425350E-03
   0.3155286438E+00   0.2490821571E+00   0.8835043679E-04  -0.1835685885E-04   0.0000000000E+00   0.0000000000E+00   0.3317480497E-01   0.1360099598E-03  -0.2849612390E-04
   0.2874181449E+00   0.1990876571E+00   0.8197283816E-04  -0.1274481796E-04   0.0000000000E+00   0.0000000000E+00   0.3019090275E-01   0.3060579119E-03  -0.9393970290E-03
   0.2768696497E+00   0.2154151141E+00   0.7821489395E-04  -0.1499395812E-04   0.0000000000E+00   0.0000000000E+00   0.3160131312E-01   0.8952947372E-04  -0.8001192986E-03
   0.2671577259E+00   0.1988187657E+00   0.7648453726E-04  -0.1332028604E-04   0.0000000000E+00   0.0000000000E+00   0.3046692162E-01   0.1331489048E-03  -0.1110627349E-02
   0.3201359578E+00   0.1918121136E+00   0.9093119617E-04  -0.1136598808E-04   0.0000000000E+00   0.0000000000E+00   0.2914375343E-01   0.4733992850E-03  -0.6055604099E-03
   0.3378950820E+00   0.1820882426E+00   0.9568844018E-04  -0.1017834764E-04   0.0000000000E+00   0.0000000000E+00   0.2842138734E-01   0.7690587312E-03  -0.3415244640E-03
   0.3379038547E+00   0.2010130725E+00   0.9544247375E-04  -0.1224042933E-04   0.0000000000E+00   0.0000000000E+00   0.3000626169E-01   0.4443549207E-03  -0.2943707453E-03
   0.3380084466E+00   0.1629978005E+00   0.9598519135E-04  -0.8281110182E-05   0.0000000000E+00   0.0000000000E+00   0.2680056819E-01   0.1187729438E-02  -0.4055900078E-03
   0.3549999940E+00   0.1726180344E+00   0.1000000000E-03  -0.9177871342E-05   0.0000000000E+00   0.0000000000E+00   0.2758520058E-01   0.9677518347E-03   0.6033205817E-05
   0.3549999940E+00   0.1534771844E+00   0.1000000000E-03  -0.7379511093E-05   0.0000000000E+00   0.0000000000E+00   0.2596502789E-01   0.1439704253E-02   0.2111034257E-05
   0.2720700245E+00   0.3624974763E-01   0.8853264907E-04  -0.8862074536E-06   0.0000000000E+00   0.0000000000E+00   0.1623608573E-01   0.3756087323E-02  -0.1393987803E-02
   0.3210395444E+00   0.1343330588E+00   0.9280894746E-04  -0.5888344265E-05   0.0000000000E+00   0.0000000000E+00   0.2437776772E-01   0.1804896777E-02  -0.9231228239E-03
   0.3210458586E+00   0.1152317732E+00   0.9337391188E-04  -0.4489895082E-05   0.0000000000E+00   0.0000000000E+00   0.2271634394E-01   0.2348688247E-02  -0.9703761589E-03
   0.3380698161E+00   0.1247635451E+00   0.9656050119E-04  -0.5098057489E-05   0.0000000000E+00   0.0000000000E+00   0.2350867243E-01   0.2189024334E-02  -0.4716663681E-03
   0.3549999940E+00   0.9599084910E-01   0.1000000000E-03  -0.3259976031E-05   0.0000000000E+00   0.0000000000E+00   0.2115959837E-01   0.3054639507E-02  -0.2012443917E-04
   0.3380412246E+00   0.1055999208E+00   0.9683089282E-04  -0.3827144101E-05   0.0000000000E+00   0.0000000000E+00   0.2191230338E-01   0.2744834959E-02  -0.4773237525E-03
   0.3549999940E+00   0.7680769344E-01   0.1000000000E-03  -0.2307727201E-05   0.0000000000E+00   0.0000000000E+00   0.1977183066E-01   0.3582532166E-02  -0.1745905360E-04
   0.3367218217E+00   0.4717443429E-01   0.9732751395E-04  -0.1196580282E-05   0.0000000000E+00   0.0000000000E+00   0.1796966936E-01   0.4254182773E-02  -0.3499182966E-03
   0.3549999940E+00   0.5761536129E-01   0.1000000000E-03  -0.1538934116E-05   0.0000000000E+00   0.0000000000E+00   0.1856196251E-01   0.4036231299E-02  -0.1106679180E-04
   0.0000000000E+00   0.2475271120E+00   0.0000000000E+00  -0.4945776087E-04   0.0000000000E+00   0.0000000000E+00   0.1871410197E-01   0.7028172931E-03   0.9174048263E-03
   0.3925678040E-01   0.2476235144E+00   0.7357802020E-05  -0.4752971173E-04   0.0000000000E+00   0.0000000000E+00   0.2160921010E-01  -0.8580750662E-04   0.6044715480E-03
   0.5670043263E-01   0.1216182884E+00   0.2389837062E-04  -0.3039905284E-04   0.0000000000E+00   0.0000000000E+00   0.4317869588E-01   0.2622511762E-02  -0.5255705303E-03
   0.6860942649E-01   0.2308711818E+00   0.1582448774E-04  -0.4199066471E-04   0.0000000000E+00   0.0000000000E+00   0.2816899263E-01   0.6666253720E-04   0.1878698218E-02
   0.5890815480E-01   0.2477414625E+00   0.1149642408E-04  -0.4517074934E-04   0.0000000000E+00   0.0000000000E+00   0.2465748757E-01  -0.4789159106E-04   0.7449807437E-03
   0.7858287775E-01   0.2478893732E+00   0.1610194302E-04  -0.4221253647E-04   0.0000000000E+00   0.0000000000E+00   0.2739045797E-01  -0.5829807323E-04   0.8454833587E-03
   0.1279843452E+00   0.2315428983E+00   0.3215730460E-04  -0.3172133343E-04   0.0000000000E+00   0.0000000000E+00   0.3278668951E-01  -0.2701551412E-03   0.1247275259E-02
   0.1180031167E+00   0.2482219619E+00   0.2672899411E-04  -0.3556076233E-04   0.0000000000E+00   0.0000000000E+00   0.3236859106E-01  -0.7639779777E-04   0.6230689166E-03
   0.1377427042E+00   0.2483840967E+00   0.3263188493E-04  -0.3231806522E-04   0.0000000000E+00   0.0000000000E+00   0.3417429244E-01  -0.6362762351E-04   0.4529375544E-03
   0.1379492803E+00   0.2148398452E+00   0.3725752590E-04  -0.2782107648E-04   0.0000000000E+00   0.0000000000E+00   0.3296805639E-01  -0.7966462051E-03   0.1738291169E-02
   0.1872322960E+00   0.2319389255E+00   0.5021115937E-04  -0.2324557095E-04   0.0000000000E+00   0.0000000000E+00   0.3441009787E-01  -0.2191790807E-03   0.7403002066E-04
   0.1772562638E+00   0.2486631718E+00   0.4512533631E-04  -0.2673656327E-04   0.0000000000E+00   0.0000000000E+00   0.3597818160E-01  -0.2343017422E-04   0.1065811519E-03
   0.2069855304E+00   0.2320417311E+00   0.5630814867E-04  -0.2125353871E-04   0.0000000000E+00   0.0000000000E+00   0.3429718348E-01  -0.1554624242E-03  -0.1844355360E-03
   0.1970199256E+00   0.2487734738E+00   0.5150955272E-04  -0.2453052379E-04   0.0000000000E+00   0.0000000000E+00   0.3608452412E-01   0.5638801841E-06  -0.2339196468E-04
   0.2267355260E+00   0.2321329344E+00   0.6236094008E-04  -0.1966609174E-04   0.0000000000E+00   0.0000000000E+00   0.3398946095E-01  -0.9058107238E-04  -0.3465347124E-03
   0.2167826747E+00   0.2488637804E+00   0.5787581347E-04  -0.2272439270E-04   0.0000000000E+00   0.0000000000E+00   0.3582389800E-01   0.2189511642E-04  -0.1109580457E-03
   0.2464964182E+00   0.2322055436E+00   0.6834822368E-04  -0.1843414761E-04   0.0000000000E+00   0.0000000000E+00   0.3356769577E-01  -0.3475079355E-04  -0.4202757830E-03
   0.2365419289E+00   0.2489356295E+00   0.6417189818E-04  -0.2128741004E-04   0.0000000000E+00   0.0000000000E+00   0.3533654542E-01   0.3747220430E-04  -0.1563188965E-03
   0.2664189051E+00   0.2321890501E+00   0.7430734189E-04  -0.1749115819E-04   0.0000000000E+00   0.0000000000E+00   0.3310644473E-01   0.6834639673E-05  -0.4239552602E-03
   0.2562962845E+00   0.2489911737E+00   0.7036998968E-04  -0.2017652559E-04   0.0000000000E+00   0.0000000000E+00   0.3474985049E-01   0.5071404309E-04  -0.1659891455E-03
   0.2865897772E+00   0.2320255841E+00   0.8026194488E-04  -0.1678485799E-04   0.0000000000E+00   0.0000000000E+00   0.3267102970E-01   0.3998953335E-04  -0.3739338965E-03
   0.2760452856E+00   0.2490326863E+00   0.7646129132E-04  -0.1934627401E-04   0.0000000000E+00   0.0000000000E+00   0.3414894712E-01   0.6046861683E-04  -0.1511582541E-03
   0.3072721456E+00   0.2315345054E+00   0.8629639206E-04  -0.1625101137E-04   0.0000000000E+00   0.0000000000E+00   0.3224313264E-01   0.6777992646E-04  -0.2937289081E-03
   0.2957891951E+00   0.2490622928E+00   0.8245076167E-04  -0.1875414357E-04   0.0000000000E+00   0.0000000000E+00   0.3361842002E-01   0.8046191469E-04  -0.1204004182E-03
   0.1678967930E+00   0.1638893865E+00   0.5264492073E-04  -0.1610441091E-04   0.0000000000E+00   0.0000000000E+00   0.3098730503E-01  -0.2726684998E-02  -0.7268409039E-03
   0.1577324761E+00   0.1812478228E+00   0.4731992262E-04  -0.1998588413E-04   0.0000000000E+00   0.0000000000E+00   0.3221465071E-01  -0.2247496171E-02   0.4811665820E-03
   0.1475691856E+00   0.1638804310E+00   0.4663629242E-04  -0.1884354062E-04   0.0000000000E+00   0.0000000000E+00   0.3218316448E-01  -0.3298283719E-02   0.1445984449E-03
   0.2292159573E+00   0.0000000000E+00   0.8431926674E-04   0.0000000000E+00   0.0000000000E+00   0.0000000000E+00   0.1289833412E-01   0.3189908404E-02  -0.4322022080E-03
   0.1649025186E+00   0.7185629533E-01   0.6945749155E-04  -0.3959729420E-05   0.0000000000E+00   0.0000000000E+00   0.1748814750E-01  -0.3473152224E-02  -0.6937589052E-02
   0.1867044461E+00   0.7129183491E-01   0.7319340108E-04  -0.3153219885E-05   0.0000000000E+00   0.0000000000E+00   0.1756441336E-01  -0.1158385504E-02  -0.5703293818E-02
   0.1759345870E+00   0.9007598363E-01   0.6765671972E-04  -0.5340149371E-05   0.0000000000E+00   0.0000000000E+00   0.2164226002E-01  -0.2752471030E-02  -0.5606248317E-02
   0.1761803298E-01   0.2018658808E+00   0.4587189689E-05  -0.4493656316E-04   0.0000000000E+00   0.0000000000E+00   0.3005316465E-01   0.2355255189E-02   0.1257273844E-02
   0.0000000000E+00   0.1915252055E+00   0.0000000000E+00  -0.4449576948E-04   0.0000000000E+00   0.0000000000E+00   0.3162449635E-01   0.3292129416E-02   0.7622611734E-03
   0.1707393026E-01   0.1823722985E+00   0.4818757143E-05  -0.4308944962E-04   0.0000000000E+00   0.0000000000E+00   0.3325432714E-01   0.3837313327E-02   0.1421991622E-02
   0.0000000000E+00   0.1728605752E+00   0.0000000000E+00  -0.4278843599E-04   0.0000000000E+00   0.0000000000E+00   0.3496791992E-01   0.5243712632E-02   0.9139660199E-03
   0.1717128785E-01   0.1632602163E+00   0.5289017049E-05  -0.4127929360E-04   0.0000000000E+00   0.0000000000E+00   0.3680688059E-01   0.5433185508E-02   0.1449966057E-02
   0.3430421673E-01   0.1729601876E+00   0.1014538663E-04  -0.4058906859E-04   0.0000000000E+00   0.0000000000E+00   0.3504542541E-01   0.3650335389E-02   0.2999777313E-02
   0.3516136890E-01   0.1533204601E+00   0.1151145197E-04  -0.3842177743E-04   0.0000000000E+00   0.0000000000E+00   0.3874615162E-01   0.4880199060E-02   0.2686312569E-02
   0.3420102756E-01   0.1921247994E+00   0.9337173269E-05  -0.4258333161E-04   0.0000000000E+00   0.0000000000E+00   0.3193133173E-01   0.2183660751E-02   0.2725435377E-02
   0.5480174533E-01   0.1433185642E+00   0.1916509064E-04  -0.3383695617E-04   0.0000000000E+00   0.0000000000E+00   0.3975532801E-01   0.2353505737E-02   0.2802647567E-02
   0.9839707596E-01   0.2143899755E+00   0.2568378723E-04  -0.3482231031E-04   0.0000000000E+00   0.0000000000E+00   0.3159736748E-01  -0.4759828282E-03   0.3000670497E-02
   0.1455763877E+00   0.0000000000E+00   0.7819443345E-04   0.0000000000E+00   0.0000000000E+00   0.0000000000E+00   0.2566379331E-02  -0.4074673095E-02  -0.2652425795E-02
   0.1559377184E+00   0.1774966224E-01   0.7771078703E-04  -0.7156151622E-06   0.0000000000E+00   0.0000000000E+00   0.5710272029E-02  -0.2315671462E-02  -0.2128223009E-02
   0.1664575098E+00   0.0000000000E+00   0.7915031555E-04   0.0000000000E+00   0.0000000000E+00   0.0000000000E+00   0.5641920108E-02  -0.9933536943E-03  -0.1130129262E-02
   0.3549999940E+00   0.1151637405E+00   0.1000000000E-03  -0.4417510903E-05   0.0000000000E+00   0.0000000000E+00   0.2269644366E-01   0.2501594083E-02  -0.1491510979E-04
   0.3549999940E+00   0.1343258633E+00   0.1000000000E-03  -0.5790553006E-05   0.0000000000E+00   0.0000000000E+00   0.2431171910E-01   0.1952745783E-02  -0.6333699210E-05
   0.3380766648E+00   0.1439006956E+00   0.9628025520E-04  -0.6585067313E-05   0.0000000000E+00   0.0000000000E+00   0.2515620730E-01   0.1660690920E-02  -0.4442893970E-03
   0.1660717651E+00   0.3468075967E-01   0.7654294237E-04  -0.1238768559E-05   0.0000000000E+00   0.0000000000E+00   0.9748863173E-02  -0.1152225046E-02  -0.4672726599E-02
   0.1869388686E+00   0.3532120874E-01   0.7847193212E-04  -0.1026483295E-05   0.0000000000E+00   0.0000000000E+00   0.1133949853E-01   0.3715210085E-03  -0.3937991134E-02
   0.1485560356E+00   0.3335914379E-01   0.7524513134E-04  -0.1729952182E-05   0.0000000000E+00   0.0000000000E+00   0.6042077204E-02  -0.4057637323E-02  -0.5469677053E-02
   0.2169550179E+00   0.2152838744E+00   0.6090037777E-04  -0.1817339284E-04   0.0000000000E+00   0.0000000000E+00   0.3276840638E-01  -0.2938282624E-03  -0.5702157881E-03
   0.2934516819E+00   0.3560505136E-01   0.9143323809E-04  -0.8669348658E-06   0.0000000000E+00   0.0000000000E+00   0.1682093318E-01   0.4110776419E-02  -0.1028087073E-02
   0.3032645755E+00   0.5038635514E-01   0.9238457033E-04  -0.1315979293E-05   0.0000000000E+00   0.0000000000E+00   0.1775037089E-01   0.4048367128E-02  -0.1080169480E-02
   0.3195821095E+00   0.5746887555E-01   0.9462544989E-04  -0.1553832960E-05   0.0000000000E+00   0.0000000000E+00   0.1851861289E-01   0.4042424472E-02  -0.8060847266E-03
   0.6797383097E-01   0.1950664356E+00   0.1872318336E-04  -0.3794374760E-04   0.0000000000E+00   0.0000000000E+00   0.3226862894E-01   0.3993511213E-03   0.3888214690E-02
   0.4957204401E-01   0.1993901056E+00   0.1324767214E-04  -0.4139290783E-04   0.0000000000E+00   0.0000000000E+00   0.3127022289E-01   0.1297138333E-02   0.3538987700E-02
   0.7840989869E-01   0.2137431497E+00   0.2012497981E-04  -0.3837616541E-04   0.0000000000E+00   0.0000000000E+00   0.3072036797E-01  -0.5003249520E-04   0.3313099441E-02
   0.8880317199E-01   0.1976870502E+00   0.2456620184E-04  -0.3444661583E-04   0.0000000000E+00   0.0000000000E+00   0.3248911599E-01  -0.5879131950E-03   0.3654681933E-02
   0.1082901524E+00   0.1979467170E+00   0.3033774819E-04  -0.3079464044E-04   0.0000000000E+00   0.0000000000E+00   0.3289717220E-01  -0.1105173354E-02   0.3110321538E-02
   0.1139380253E+00   0.1445092815E+00   0.3915204637E-04  -0.2136358926E-04   0.0000000000E+00   0.0000000000E+00   0.3459792908E-01  -0.4188452599E-02   0.6854922912E-03
   0.1057467016E+00   0.1652569329E+00   0.3333553163E-04  -0.2642512143E-04   0.0000000000E+00   0.0000000000E+00   0.3456259444E-01  -0.2827827041E-02   0.2463849963E-02
   0.9220207131E-01   0.1504868975E+00   0.3100939411E-04  -0.2679951012E-04   0.0000000000E+00   0.0000000000E+00   0.3599280854E-01  -0.2457921484E-02   0.2569785874E-02
   0.9722884426E-01   0.9549582394E-01   0.4662820323E-04  -0.1609898710E-04   0.0000000000E+00   0.0000000000E+00   0.3075362112E-01  -0.5240985936E-02  -0.5556412026E-02
   0.1117927027E+00   0.7635671044E-01   0.5789377345E-04  -0.1014989721E-04   0.0000000000E+00   0.0000000000E+00   0.2015951856E-01  -0.7086523613E-02  -0.7720346051E-02
   0.1972030113E+00   0.2151753663E+00   0.5504312632E-04  -0.1992243394E-04   0.0000000000E+00   0.0000000000E+00   0.3306417081E-01  -0.4735102890E-03  -0.2065475933E-03
   0.2292249522E+00   0.3582488294E-01   0.8312258372E-04  -0.8957992124E-06   0.0000000000E+00   0.0000000000E+00   0.1438034200E-01   0.2638340336E-02  -0.2476572476E-02
   0.2504761891E+00   0.3601260569E-01   0.8574054102E-04  -0.8822801871E-06   0.0000000000E+00   0.0000000000E+00   0.1548543688E-01   0.3287739457E-02  -0.1885934270E-02
   0.2780211189E+00   0.1824905358E+00   0.8039339853E-04  -0.1111640452E-04   0.0000000000E+00   0.0000000000E+00   0.2898841178E-01   0.3369544826E-03  -0.1352935338E-02
   0.2367357327E+00   0.2153779830E+00   0.6669405328E-04  -0.1681125956E-04   0.0000000000E+00   0.0000000000E+00   0.3239737645E-01  -0.1233042237E-03  -0.7733553626E-03
   0.3193974576E+00   0.2126114410E+00   0.9020285210E-04  -0.1374952002E-04   0.0000000000E+00   0.0000000000E+00   0.3089441866E-01   0.2439838449E-03  -0.4518356373E-03
   0.3549999940E+00   0.1917490574E+00   0.1000000000E-03  -0.1117277250E-04   0.0000000000E+00   0.0000000000E+00   0.2910989971E-01   0.5435962121E-03  -0.4843842762E-05
   0.2971518354E+00   0.2151076983E+00   0.8393648815E-04  -0.1442007428E-04   0.0000000000E+00   0.0000000000E+00   0.3121961254E-01   0.1271022360E-03  -0.6825162497E-03
   0.3392503187E+00   0.2171908289E+00   0.9562597456E-04  -0.1413768225E-04   0.0000000000E+00   0.0000000000E+00   0.3110647799E-01   0.1619926271E-03  -0.1852051410E-03
   0.5229541396E-01   0.1637857566E+00   0.1626210523E-04  -0.3687736825E-04   0.0000000000E+00   0.0000000000E+00   0.3635680961E-01   0.2344461730E-02   0.3728760136E-02
   0.2513824332E+00   0.9563017514E-01   0.8133278368E-04  -0.3751839124E-05   0.0000000000E+00   0.0000000000E+00   0.2124027870E-01   0.1613334312E-02  -0.3042470556E-02
   0.2689780231E+00   0.8631485331E-01   0.8522856238E-04  -0.2979561731E-05   0.0000000000E+00   0.0000000000E+00   0.1995838159E-01   0.2199777944E-02  -0.2505693389E-02
   0.2687616600E+00   0.1057462605E+00   0.8375575922E-04  -0.4235230529E-05   0.0000000000E+00   0.0000000000E+00   0.2199835432E-01   0.1660800483E-02  -0.2472228573E-02
   0.3549999940E+00   0.2108711686E+00   0.1000000000E-03  -0.1334590767E-04   0.0000000000E+00   0.0000000000E+00   0.3036981847E-01   0.2099009306E-03   0.5048891449E-04
   0.3048556201E+00   0.2002209968E+00   0.8661280102E-04  -0.1252394443E-04   0.0000000000E+00   0.0000000000E+00   0.3018040605E-01   0.3905376958E-03  -0.8181906001E-03
   0.3001792168E+00   0.1824720131E+00   0.8611209591E-04  -0.1061989748E-04   0.0000000000E+00   0.0000000000E+00   0.2876308419E-01   0.6227067375E-03  -0.1038635633E-02
   0.3038809872E+00   0.1247854692E+00   0.8958096474E-04  -0.5272015348E-05   0.0000000000E+00   0.0000000000E+00   0.2359115290E-01   0.1867864087E-02  -0.1434655580E-02
   0.2841875690E+00   0.5571225491E-01   0.8942511934E-04  -0.1510935844E-05   0.0000000000E+00   0.0000000000E+00   0.1769167150E-01   0.3558666422E-02  -0.1649354749E-02
   0.3028346874E+00   0.6727949961E-01   0.9177918794E-04  -0.1932743700E-05   0.0000000000E+00   0.0000000000E+00   0.1875381737E-01   0.3448112006E-02  -0.1336262739E-02
   0.3207831225E+00   0.1533341098E+00   0.9218840939E-04  -0.7496504528E-05   0.0000000000E+00   0.0000000000E+00   0.2604136936E-01   0.1313003785E-02  -0.8325929005E-03
   0.2269678474E+00   0.1985136609E+00   0.6535154740E-04  -0.1529060226E-04   0.0000000000E+00   0.0000000000E+00   0.3127389580E-01  -0.3867619143E-03  -0.1021391021E-02