 VARIABLES = X,Y,DU1,DU2,U1,U2,S11,S22,S12
 ZONE, T="0.1000D+01" F=FEPOINT, I=  259 J=  457
   0.3754173889E-01   0.1116145491E+00   0.1941201151E-04  -0.3282987469E-04   0.0000000000E+00   0.0000000000E+00   0.5269879183E-01   0.5570588808E-02  -0.6010487336E-02
   0.1987625769E-01   0.9727026370E-01   0.1468901177E-04  -0.3233051595E-04   0.0000000000E+00   0.0000000000E+00   0.7058312759E-01   0.7277489746E-02  -0.8176195341E-02
   0.3899555252E-01   0.9165689489E-01   0.2908839679E-04  -0.2924228052E-04   0.0000000000E+00   0.0000000000E+00   0.6546352299E-01   0.1131332338E-01  -0.1681969127E-01
   0.1075709353E+00   0.2322416775E+00   0.2644377234E-04  -0.3516485853E-04   0.0000000000E+00   0.0000000000E+00   0.3148086920E-01  -0.2069444277E-03   0.1605257006E-02
   0.9775203699E-01   0.2490268398E+00   0.2119252365E-04  -0.3892640651E-04   0.0000000000E+00   0.0000000000E+00   0.3004955504E-01  -0.8055992593E-04   0.7623797148E-03
   0.8789380471E-01   0.2320594383E+00   0.2098553643E-04  -0.3866714709E-04   0.0000000000E+00   0.0000000000E+00   0.2989501120E-01  -0.9687291621E-04   0.1838818474E-02
   0.9010956379E-01   0.7344168945E-01   0.5497542748E-04  -0.1458594200E-04   0.0000000000E+00   0.0000000000E+00   0.1904202982E-01  -0.2523486243E-02  -0.7261753272E-02
   0.7438195609E-01   0.8862356534E-01   0.4355673570E-04  -0.2084923025E-04   0.0000000000E+00   0.0000000000E+00   0.3004351980E-01   0.9478414075E-03  -0.9105454869E-02
   0.7206246035E-01   0.7019337347E-01   0.5407115790E-04  -0.2069231709E-04   0.0000000000E+00   0.0000000000E+00   0.1928168041E-01   0.6039351510E-02  -0.1016869243E-01
   0.1663761945E+00   0.2324651837E+00   0.4411246148E-04  -0.2566909036E-04   0.0000000000E+00   0.0000000000E+00   0.3424261637E-01  -0.2717394330E-03   0.4217632903E-03
   0.1565255640E+00   0.2492663616E+00   0.3880011876E-04  -0.2934553547E-04   0.0000000000E+00   0.0000000000E+00   0.3537236954E-01  -0.4664173315E-04   0.2716030394E-03
   0.1467779799E+00   0.2324055453E+00   0.3807095796E-04  -0.2851478869E-04   0.0000000000E+00   0.0000000000E+00   0.3371558368E-01  -0.2950287661E-03   0.8314729958E-03
   0.1034302366E+00   0.5660340153E-01   0.6457102540E-04  -0.9188814991E-05   0.0000000000E+00   0.0000000000E+00   0.1095177409E-01  -0.5996718575E-02  -0.5446018307E-02
   0.8473330950E-01   0.5517071976E-01   0.6345400012E-04  -0.1545215750E-04   0.0000000000E+00   0.0000000000E+00   0.5530019881E-02  -0.5007858815E-02  -0.2500244717E-02
   0.9994953461E-01   0.1938904739E-01   0.7484032045E-04  -0.4799400208E-05   0.0000000000E+00   0.0000000000E+00  -0.1253079428E-02  -0.1940601075E-01   0.7426882352E-03
   0.1018809711E+00   0.0000000000E+00   0.7523880562E-04   0.0000000000E+00   0.0000000000E+00   0.0000000000E+00   0.1957212600E-02  -0.3629254404E-01  -0.1225041625E-02
   0.1227709004E+00   0.0000000000E+00   0.7750281467E-04   0.0000000000E+00   0.0000000000E+00   0.0000000000E+00  -0.9167465092E-03  -0.1539709981E-01   0.2116473718E-03
   0.1566154756E+00   0.2155764399E+00   0.4318394341E-04  -0.2474904393E-04   0.0000000000E+00   0.0000000000E+00   0.3322397680E-01  -0.7741591685E-03   0.9915267923E-03
   0.1762204434E+00   0.2156261787E+00   0.4912721475E-04  -0.2210861187E-04   0.0000000000E+00   0.0000000000E+00   0.3323757866E-01  -0.6470608772E-03   0.3202386722E-03
   0.1762123007E-01   0.2233637112E+00   0.4126342857E-05  -0.4690115214E-04   0.0000000000E+00   0.0000000000E+00   0.2704582680E-01   0.8272336218E-03   0.7370494146E-03
   0.0000000000E+00   0.2300491599E+00   0.0000000000E+00  -0.4803372350E-04   0.0000000000E+00   0.0000000000E+00   0.2362667542E-01   0.6697529840E-03   0.1704090418E-03
   0.0000000000E+00   0.2113430470E+00   0.0000000000E+00  -0.4627835925E-04   0.0000000000E+00   0.0000000000E+00   0.2823333251E-01   0.1596538116E-02   0.8480308920E-03
   0.0000000000E+00   0.1178214978E+00   0.0000000000E+00  -0.3714004802E-04   0.0000000000E+00   0.0000000000E+00   0.6696620664E-01   0.7023715092E-02  -0.1912841950E-02
   0.0000000000E+00   0.9921251039E-01   0.0000000000E+00  -0.3149962457E-04   0.0000000000E+00   0.0000000000E+00   0.9922800295E-01  -0.1264318748E-02  -0.5107556294E-03
   0.1844073030E-01   0.1236510730E+00   0.8175276058E-05  -0.3684340132E-04   0.0000000000E+00   0.0000000000E+00   0.4882685418E-01   0.6923894184E-02  -0.2026836092E-02
   0.5636991804E-01   0.1011197647E+00   0.3139192580E-04  -0.2726465151E-04   0.0000000000E+00   0.0000000000E+00   0.4121014238E-01   0.2424943622E-02  -0.8722848383E-02
   0.5661916645E-01   0.8251163457E-01   0.4248571004E-04  -0.2541299733E-04   0.0000000000E+00   0.0000000000E+00   0.4083578801E-01   0.1164470838E-01  -0.1687276327E-01
   0.3674488292E-01   0.2143031499E+00   0.9197800863E-05  -0.4450264583E-04   0.0000000000E+00   0.0000000000E+00   0.2863918551E-01   0.1018790195E-02   0.2312495899E-02
   0.5797745289E-01   0.2148424683E+00   0.1468032773E-04  -0.4170714757E-04   0.0000000000E+00   0.0000000000E+00   0.2944689208E-01   0.3081367815E-03   0.3000328936E-02
   0.4879392082E-01   0.2319660094E+00   0.1102542486E-04  -0.4482782298E-04   0.0000000000E+00   0.0000000000E+00   0.2680375409E-01   0.4429759241E-03   0.1769688365E-02
   0.1759658370E-01   0.1446716413E+00   0.6212139837E-05  -0.3933338926E-04   0.0000000000E+00   0.0000000000E+00   0.4207457918E-01   0.6505134950E-02   0.9746448833E-03
   0.0000000000E+00   0.1552211841E+00   0.0000000000E+00  -0.4115263408E-04   0.0000000000E+00   0.0000000000E+00   0.3942408612E-01   0.7348759800E-02   0.1025628712E-02
   0.0000000000E+00   0.1365137460E+00   0.0000000000E+00  -0.3945028195E-04   0.0000000000E+00   0.0000000000E+00   0.4676460976E-01   0.9509173293E-02   0.2626672592E-02
   0.3628184705E-01   0.1334609832E+00   0.1409175419E-04  -0.3588499247E-04   0.0000000000E+00   0.0000000000E+00   0.4514841253E-01   0.6324586543E-02   0.8116149362E-03
   0.3233492779E-01   0.2334086512E+00   0.7092667677E-05  -0.4679655008E-04   0.0000000000E+00   0.0000000000E+00   0.2456911573E-01   0.1616737917E-03   0.1292341423E-02
   0.1953538719E-01   0.2487710174E+00   0.3637683758E-05  -0.4915930531E-04   0.0000000000E+00   0.0000000000E+00   0.2215435848E-01   0.2016825898E-03   0.3561878549E-03
   0.1308037239E+00   0.2142858255E-01   0.7610399698E-04  -0.1517634148E-05   0.0000000000E+00   0.0000000000E+00   0.2477570715E-02  -0.6063109756E-02  -0.2367873350E-02
   0.3315968083E+00   0.0000000000E+00   0.9720509032E-04   0.0000000000E+00   0.0000000000E+00   0.0000000000E+00   0.1674737950E-01   0.4695465414E-02  -0.6773013602E-04
   0.3524999940E+00   0.0000000000E+00   0.1000000000E-03   0.0000000000E+00   0.0000000000E+00   0.0000000000E+00   0.1663076383E-01   0.4667452487E-02   0.3229563233E-04
   0.3524999940E+00   0.1921984897E-01   0.1000000000E-03  -0.4368373714E-06   0.0000000000E+00   0.0000000000E+00   0.1698678077E-01   0.4697213436E-02   0.3138871359E-05
   0.3338650997E+00   0.2615642158E-01   0.9743306808E-04  -0.6111768354E-06   0.0000000000E+00   0.0000000000E+00   0.1722026032E-01   0.4655720063E-02  -0.1814305591E-03
   0.3524999940E+00   0.3843832867E-01   0.1000000000E-03  -0.9284490916E-06   0.0000000000E+00   0.0000000000E+00   0.1757425395E-01   0.4439279958E-02  -0.1659514847E-04
   0.3181389737E+00   0.7689722247E-01   0.9432622658E-04  -0.2333973297E-05   0.0000000000E+00   0.0000000000E+00   0.1968363119E-01   0.3467974289E-02  -0.9234991689E-03
   0.3351595927E+00   0.6716173823E-01   0.9724946777E-04  -0.1906182922E-05   0.0000000000E+00   0.0000000000E+00   0.1910831602E-01   0.3809612195E-02  -0.4036642008E-03
   0.3355115444E+00   0.8648823953E-01   0.9707249753E-04  -0.2769230808E-05   0.0000000000E+00   0.0000000000E+00   0.2042605125E-01   0.3298488269E-02  -0.4563851452E-03
   0.3137788315E+00   0.3579525208E-01   0.9454306042E-04  -0.8666808515E-06   0.0000000000E+00   0.0000000000E+00   0.1723544778E-01   0.4311405404E-02  -0.6293741022E-03
   0.3181572645E+00   0.1594586571E-01   0.9536301880E-04  -0.3645236782E-06   0.0000000000E+00   0.0000000000E+00   0.1669235861E-01   0.4573196245E-02  -0.2465494083E-03
   0.2798578656E+00   0.1795160663E-01   0.9030906378E-04  -0.4058028712E-06   0.0000000000E+00   0.0000000000E+00   0.1592162043E-01   0.4194147119E-02  -0.5653902955E-03
   0.2688940655E+00   0.0000000000E+00   0.8909537818E-04   0.0000000000E+00   0.0000000000E+00   0.0000000000E+00   0.1525979467E-01   0.4140559541E-02  -0.2353876006E-03
   0.2897928193E+00   0.0000000000E+00   0.9171301002E-04   0.0000000000E+00   0.0000000000E+00   0.0000000000E+00   0.1598734234E-01   0.4422500815E-02  -0.1803089062E-03
   0.2376148389E+00   0.1792995680E-01   0.8517855705E-04  -0.3978398820E-06   0.0000000000E+00   0.0000000000E+00   0.1396961573E-01   0.3367453602E-02  -0.1043909071E-02
   0.2479987022E+00   0.0000000000E+00   0.8661460806E-04   0.0000000000E+00   0.0000000000E+00   0.0000000000E+00   0.1423865336E-01   0.3735366323E-02  -0.3228873842E-03
   0.2587006857E+00   0.1801022224E-01   0.8766242762E-04  -0.4038623832E-06   0.0000000000E+00   0.0000000000E+00   0.1506710854E-01   0.3848020946E-02  -0.8020571945E-03
   0.3011760431E+00   0.8654909082E-01   0.9115108225E-04  -0.2834995102E-05   0.0000000000E+00   0.0000000000E+00   0.2031603348E-01   0.2967940554E-02  -0.1424644761E-02
   0.3185074441E+00   0.9613673049E-01   0.9388252582E-04  -0.3306704314E-05   0.0000000000E+00   0.0000000000E+00   0.2113628532E-01   0.2912896404E-02  -0.9731500864E-03
   0.3015463871E+00   0.1057862750E+00   0.9041160451E-04  -0.3945999953E-05   0.0000000000E+00   0.0000000000E+00   0.2190547695E-01   0.2412482718E-02  -0.1468377405E-02
   0.1956398688E+00   0.1782110972E-01   0.8086283346E-04  -0.4171990993E-06   0.0000000000E+00   0.0000000000E+00   0.1072021772E-01   0.1714958064E-02  -0.1717440276E-02
   0.2062232333E+00   0.0000000000E+00   0.8226269061E-04   0.0000000000E+00   0.0000000000E+00   0.0000000000E+00   0.1112252650E-01   0.2399995280E-02  -0.5791398071E-03
   0.2166376870E+00   0.1790004430E-01   0.8289880062E-04  -0.4009839229E-06   0.0000000000E+00   0.0000000000E+00   0.1253031993E-01   0.2678980714E-02  -0.1354213485E-02
   0.1339122631E+00   0.4100543724E-01   0.7271220213E-04  -0.2975130336E-05   0.0000000000E+00   0.0000000000E+00   0.7577293398E-02  -0.6200293385E-02  -0.5806930156E-02
   0.1267544457E+00   0.5977120842E-01   0.6669990856E-04  -0.5398455227E-05   0.0000000000E+00   0.0000000000E+00   0.1291149329E-01  -0.7050641825E-02  -0.7642154356E-02
   0.1147876827E+00   0.3910686840E-01   0.7163702634E-04  -0.4967444060E-05   0.0000000000E+00   0.0000000000E+00   0.3954215574E-02  -0.1027307252E-01  -0.3907590569E-02
   0.1747032493E+00   0.1761865150E-01   0.7913089277E-04  -0.4695721429E-06   0.0000000000E+00   0.0000000000E+00   0.8451868750E-02   0.4189093098E-03  -0.2147862463E-02
   0.1853461453E+00   0.0000000000E+00   0.8051233002E-04   0.0000000000E+00   0.0000000000E+00   0.0000000000E+00   0.8804983774E-02   0.1268874424E-02  -0.8198961623E-03
   0.9414592640E-01   0.3801718527E-01   0.7031898010E-04  -0.1004629308E-04   0.0000000000E+00   0.0000000000E+00  -0.1821913523E-03  -0.1845160518E-01   0.1581868356E-02
   0.3329103463E+00   0.2495464624E+00   0.9419153145E-04  -0.1814150357E-04   0.0000000000E+00   0.0000000000E+00   0.3273207635E-01   0.2847742157E-04  -0.1440108465E-05
   0.3524999940E+00   0.2303780310E+00   0.1000000000E-03  -0.1564803975E-04   0.0000000000E+00   0.0000000000E+00   0.3194942136E-01   0.2009711011E-04  -0.4397788134E-04
   0.3524999940E+00   0.2495470774E+00   0.1000000000E-03  -0.1811690379E-04   0.0000000000E+00   0.0000000000E+00   0.3327105001E-01  -0.1205357172E-03   0.1200268375E-03
   0.3263740788E+00   0.2319597067E+00   0.9244899176E-04  -0.1596961045E-04   0.0000000000E+00   0.0000000000E+00   0.3199170238E-01   0.6251964004E-04  -0.2551425350E-03
   0.3133198829E+00   0.2495410785E+00   0.8835043679E-04  -0.1835685885E-04   0.0000000000E+00   0.0000000000E+00   0.3317480497E-01   0.1360099598E-03  -0.2849612390E-04
   0.2853688240E+00   0.1994062776E+00   0.8197283816E-04  -0.1274481796E-04   0.0000000000E+00   0.0000000000E+00   0.3019090275E-01   0.3060579119E-03  -0.9393970290E-03
   0.2749142773E+00   0.2157899630E+00   0.7821489395E-04  -0.1499395812E-04   0.0000000000E+00   0.0000000000E+00   0.3160131312E-01   0.8952947372E-04  -0.8001192986E-03
   0.2652456124E+00   0.1991517728E+00   0.7648453726E-04  -0.1332028604E-04   0.0000000000E+00   0.0000000000E+00   0.3046692162E-01   0.1331489048E-03  -0.1110627349E-02
   0.3178626779E+00   0.1920962633E+00   0.9093119617E-04  -0.1136598808E-04   0.0000000000E+00   0.0000000000E+00   0.2914375343E-01   0.4733992850E-03  -0.6055604099E-03
   0.3355028710E+00   0.1823427013E+00   0.9568844018E-04  -0.1017834764E-04   0.0000000000E+00   0.0000000000E+00   0.2842138734E-01   0.7690587312E-03  -0.3415244640E-03
   0.3355177928E+00   0.2013190833E+00   0.9544247375E-04  -0.1224042933E-04   0.0000000000E+00   0.0000000000E+00   0.3000626169E-01   0.4443549207E-03  -0.2943707453E-03
   0.3356088168E+00   0.1632048282E+00   0.9598519135E-04  -0.8281110182E-05   0.0000000000E+00   0.0000000000E+00   0.2680056819E-01   0.1187729438E-02  -0.4055900078E-03
   0.3524999940E+00   0.1728474812E+00   0.1000000000E-03  -0.9177871342E-05   0.0000000000E+00   0.0000000000E+00   0.2758520058E-01   0.9677518347E-03   0.6033205817E-05
   0.3524999940E+00   0.1536616722E+00   0.1000000000E-03  -0.7379511093E-05   0.0000000000E+00   0.0000000000E+00   0.2596502789E-01   0.1439704253E-02   0.2111034257E-05
   0.2698567082E+00   0.3627190281E-01   0.8853264907E-04  -0.8862074536E-06   0.0000000000E+00   0.0000000000E+00   0.1623608573E-01   0.3756087323E-02  -0.1393987803E-02
   0.3187193207E+00   0.1344802674E+00   0.9280894746E-04  -0.5888344265E-05   0.0000000000E+00   0.0000000000E+00   0.2437776772E-01   0.1804896777E-02  -0.9231228239E-03
   0.3187115108E+00   0.1153440206E+00   0.9337391188E-04  -0.4489895082E-05   0.0000000000E+00   0.0000000000E+00   0.2271634394E-01   0.2348688247E-02  -0.9703761589E-03
   0.3356558035E+00   0.1248909966E+00   0.9656050119E-04  -0.5098057489E-05   0.0000000000E+00   0.0000000000E+00   0.2350867243E-01   0.2189024334E-02  -0.4716663681E-03
   0.3524999940E+00   0.9607234850E-01   0.1000000000E-03  -0.3259976031E-05   0.0000000000E+00   0.0000000000E+00   0.2115959837E-01   0.3054639507E-02  -0.2012443917E-04
   0.3356204523E+00   0.1056955994E+00   0.9683089282E-04  -0.3827144101E-05   0.0000000000E+00   0.0000000000E+00   0.2191230338E-01   0.2744834959E-02  -0.4773237525E-03
   0.3524999940E+00   0.7686538662E-01   0.1000000000E-03  -0.2307727201E-05   0.0000000000E+00   0.0000000000E+00   0.1977183066E-01   0.3582532166E-02  -0.1745905360E-04
   0.3342886338E+00   0.4720434879E-01   0.9732751395E-04  -0.1196580282E-05   0.0000000000E+00   0.0000000000E+00   0.1796966936E-01   0.4254182773E-02  -0.3499182966E-03
   0.3524999940E+00   0.5765383465E-01   0.1000000000E-03  -0.1538934116E-05   0.0000000000E+00   0.0000000000E+00   0.1856196251E-01   0.4036231299E-02  -0.1106679180E-04
   0.0000000000E+00   0.2487635560E+00   0.0000000000E+00  -0.4945776087E-04   0.0000000000E+00   0.0000000000E+00   0.1871410197E-01   0.7028172931E-03   0.9174048263E-03
   0.3907283535E-01   0.2488117572E+00   0.7357802020E-05  -0.4752971173E-04   0.0000000000E+00   0.0000000000E+00   0.2160921010E-01  -0.8580750662E-04   0.6044715480E-03
   0.5610297337E-01   0.1223782647E+00   0.2389837062E-04  -0.3039905284E-04   0.0000000000E+00   0.0000000000E+00   0.4317869588E-01   0.2622511762E-02  -0.5255705303E-03
   0.6821381429E-01   0.2319209484E+00   0.1582448774E-04  -0.4199066471E-04   0.0000000000E+00   0.0000000000E+00   0.2816899263E-01   0.6666253720E-04   0.1878698218E-02
   0.5862074420E-01   0.2488707313E+00   0.1149642408E-04  -0.4517074934E-04   0.0000000000E+00   0.0000000000E+00   0.2465748757E-01  -0.4789159106E-04   0.7449807437E-03
   0.7818032918E-01   0.2489446866E+00   0.1610194302E-04  -0.4221253647E-04   0.0000000000E+00   0.0000000000E+00   0.2739045797E-01  -0.5829807323E-04   0.8454833587E-03
   0.1271804126E+00   0.2323359317E+00   0.3215730460E-04  -0.3172133343E-04   0.0000000000E+00   0.0000000000E+00   0.3278668951E-01  -0.2701551412E-03   0.1247275259E-02
   0.1173348919E+00   0.2491109809E+00   0.2672899411E-04  -0.3556076233E-04   0.0000000000E+00   0.0000000000E+00   0.3236859106E-01  -0.7639779777E-04   0.6230689166E-03
   0.1369269071E+00   0.2491920484E+00   0.3263188493E-04  -0.3231806522E-04   0.0000000000E+00   0.0000000000E+00   0.3417429244E-01  -0.6362762351E-04   0.4529375544E-03
   0.1370178421E+00   0.2155353721E+00   0.3725752590E-04  -0.2782107648E-04   0.0000000000E+00   0.0000000000E+00   0.3296805639E-01  -0.7966462051E-03   0.1738291169E-02
   0.1859770170E+00   0.2325200647E+00   0.5021115937E-04  -0.2324557095E-04   0.0000000000E+00   0.0000000000E+00   0.3441009787E-01  -0.2191790807E-03   0.7403002066E-04
   0.1761281304E+00   0.2493315859E+00   0.4512533631E-04  -0.2673656327E-04   0.0000000000E+00   0.0000000000E+00   0.3597818160E-01  -0.2343017422E-04   0.1065811519E-03
   0.2055778267E+00   0.2325730695E+00   0.5630814867E-04  -0.2125353871E-04   0.0000000000E+00   0.0000000000E+00   0.3429718348E-01  -0.1554624242E-03  -0.1844355360E-03
   0.1957321868E+00   0.2493867369E+00   0.5150955272E-04  -0.2453052379E-04   0.0000000000E+00   0.0000000000E+00   0.3608452412E-01   0.5638801841E-06  -0.2339196468E-04
   0.2251765025E+00   0.2326245867E+00   0.6236094008E-04  -0.1966609174E-04   0.0000000000E+00   0.0000000000E+00   0.3398946095E-01  -0.9058107238E-04  -0.3465347124E-03
   0.2153357793E+00   0.2494318902E+00   0.5787581347E-04  -0.2272439270E-04   0.0000000000E+00   0.0000000000E+00   0.3582389800E-01   0.2189511642E-04  -0.1109580457E-03
   0.2447877126E+00   0.2326663973E+00   0.6834822368E-04  -0.1843414761E-04   0.0000000000E+00   0.0000000000E+00   0.3356769577E-01  -0.3475079355E-04  -0.4202757830E-03
   0.2349376315E+00   0.2494678147E+00   0.6417189818E-04  -0.2128741004E-04   0.0000000000E+00   0.0000000000E+00   0.3533654542E-01   0.3747220430E-04  -0.1563188965E-03
   0.2645612215E+00   0.2326263290E+00   0.7430734189E-04  -0.1749115819E-04   0.0000000000E+00   0.0000000000E+00   0.3310644473E-01   0.6834639673E-05  -0.4239552602E-03
   0.2545370347E+00   0.2494955869E+00   0.7036998968E-04  -0.2017652559E-04   0.0000000000E+00   0.0000000000E+00   0.3474985049E-01   0.5071404309E-04  -0.1659891455E-03
   0.2845832286E+00   0.2324452056E+00   0.8026194488E-04  -0.1678485799E-04   0.0000000000E+00   0.0000000000E+00   0.3267102970E-01   0.3998953335E-04  -0.3739338965E-03
   0.2741337533E+00   0.2495163431E+00   0.7646129132E-04  -0.1934627401E-04   0.0000000000E+00   0.0000000000E+00   0.3414894712E-01   0.6046861683E-04  -0.1511582541E-03
   0.3051147358E+00   0.2319407807E+00   0.8629639206E-04  -0.1625101137E-04   0.0000000000E+00   0.0000000000E+00   0.3224313264E-01   0.6777992646E-04  -0.2937289081E-03
   0.2937279260E+00   0.2495311464E+00   0.8245076167E-04  -0.1875414357E-04   0.0000000000E+00   0.0000000000E+00   0.3361842002E-01   0.8046191469E-04  -0.1204004182E-03
   0.1665806700E+00   0.1642919967E+00   0.5264492073E-04  -0.1610441091E-04   0.0000000000E+00   0.0000000000E+00   0.3098730503E-01  -0.2726684998E-02  -0.7268409039E-03
   0.1565494781E+00   0.1817474699E+00   0.4731992262E-04  -0.1998588413E-04   0.0000000000E+00   0.0000000000E+00   0.3221465071E-01  -0.2247496171E-02   0.4811665820E-03
   0.1464032783E+00   0.1643515195E+00   0.4663629242E-04  -0.1884354062E-04   0.0000000000E+00   0.0000000000E+00   0.3218316448E-01  -0.3298283719E-02   0.1445984449E-03
   0.2271079757E+00   0.0000000000E+00   0.8431926674E-04   0.0000000000E+00   0.0000000000E+00   0.0000000000E+00   0.1289833412E-01   0.3189908404E-02  -0.4322022080E-03
   0.1631660813E+00   0.7195528856E-01   0.6945749155E-04  -0.3959729420E-05   0.0000000000E+00   0.0000000000E+00   0.1748814750E-01  -0.3473152224E-02  -0.6937589052E-02
   0.1848746110E+00   0.7137066540E-01   0.7319340108E-04  -0.3153219885E-05   0.0000000000E+00   0.0000000000E+00   0.1756441336E-01  -0.1158385504E-02  -0.5703293818E-02
   0.1742431690E+00   0.9020948737E-01   0.6765671972E-04  -0.5340149371E-05   0.0000000000E+00   0.0000000000E+00   0.2164226002E-01  -0.2752471030E-02  -0.5606248317E-02
   0.1750335324E-01   0.2029892949E+00   0.4587189689E-05  -0.4493656316E-04   0.0000000000E+00   0.0000000000E+00   0.3005316465E-01   0.2355255189E-02   0.1257273844E-02
   0.0000000000E+00   0.1926375998E+00   0.0000000000E+00  -0.4449576948E-04   0.0000000000E+00   0.0000000000E+00   0.3162449635E-01   0.3292129416E-02   0.7622611734E-03
   0.1695346133E-01   0.1834495348E+00   0.4818757143E-05  -0.4308944962E-04   0.0000000000E+00   0.0000000000E+00   0.3325432714E-01   0.3837313327E-02   0.1421991622E-02
   0.0000000000E+00   0.1739302861E+00   0.0000000000E+00  -0.4278843599E-04   0.0000000000E+00   0.0000000000E+00   0.3496791992E-01   0.5243712632E-02   0.9139660199E-03
   0.1703906243E-01   0.1642921987E+00   0.5289017049E-05  -0.4127929360E-04   0.0000000000E+00   0.0000000000E+00   0.3680688059E-01   0.5433185508E-02   0.1449966057E-02
   0.3405058207E-01   0.1739749143E+00   0.1014538663E-04  -0.4058906859E-04   0.0000000000E+00   0.0000000000E+00   0.3504542541E-01   0.3650335389E-02   0.2999777313E-02
   0.3487358260E-01   0.1542810046E+00   0.1151145197E-04  -0.3842177743E-04   0.0000000000E+00   0.0000000000E+00   0.3874615162E-01   0.4880199060E-02   0.2686312569E-02
   0.3396759823E-01   0.1931893827E+00   0.9337173269E-05  -0.4258333161E-04   0.0000000000E+00   0.0000000000E+00   0.3193133173E-01   0.2183660751E-02   0.2725435377E-02
   0.5432261807E-01   0.1441644881E+00   0.1916509064E-04  -0.3383695617E-04   0.0000000000E+00   0.0000000000E+00   0.3975532801E-01   0.2353505737E-02   0.2802647567E-02
   0.9775498128E-01   0.2152605332E+00   0.2568378723E-04  -0.3482231031E-04   0.0000000000E+00   0.0000000000E+00   0.3159736748E-01  -0.4759828282E-03   0.3000670497E-02
   0.1436215268E+00   0.0000000000E+00   0.7819443345E-04   0.0000000000E+00   0.0000000000E+00   0.0000000000E+00   0.2566379331E-02  -0.4074673095E-02  -0.2652425795E-02
   0.1539949487E+00   0.1776755262E-01   0.7771078703E-04  -0.7156151622E-06   0.0000000000E+00   0.0000000000E+00   0.5710272029E-02  -0.2315671462E-02  -0.2128223009E-02
   0.1644787519E+00   0.0000000000E+00   0.7915031555E-04   0.0000000000E+00   0.0000000000E+00   0.0000000000E+00   0.5641920108E-02  -0.9933536943E-03  -0.1130129262E-02
   0.3524999940E+00   0.1152741782E+00   0.1000000000E-03  -0.4417510903E-05   0.0000000000E+00   0.0000000000E+00   0.2269644366E-01   0.2501594083E-02  -0.1491510979E-04
   0.3524999940E+00   0.1344706272E+00   0.1000000000E-03  -0.5790553006E-05   0.0000000000E+00   0.0000000000E+00   0.2431171910E-01   0.1952745783E-02  -0.6333699210E-05
   0.3356696584E+00   0.1440653223E+00   0.9628025520E-04  -0.6585067313E-05   0.0000000000E+00   0.0000000000E+00   0.2515620730E-01   0.1660690920E-02  -0.4442893970E-03
   0.1641581916E+00   0.3471172889E-01   0.7654294237E-04  -0.1238768559E-05   0.0000000000E+00   0.0000000000E+00   0.9748863173E-02  -0.1152225046E-02  -0.4672726599E-02
   0.1849770703E+00   0.3534687082E-01   0.7847193212E-04  -0.1026483295E-05   0.0000000000E+00   0.0000000000E+00   0.1133949853E-01   0.3715210085E-03  -0.3937991134E-02
   0.1466749073E+00   0.3340239260E-01   0.7524513134E-04  -0.1729952182E-05   0.0000000000E+00   0.0000000000E+00   0.6042077204E-02  -0.4057637323E-02  -0.5469677053E-02
   0.2154325084E+00   0.2157382092E+00   0.6090037777E-04  -0.1817339284E-04   0.0000000000E+00   0.0000000000E+00   0.3276840638E-01  -0.2938282624E-03  -0.5702157881E-03
   0.2911658510E+00   0.3562672473E-01   0.9143323809E-04  -0.8669348658E-06   0.0000000000E+00   0.0000000000E+00   0.1682093318E-01   0.4110776419E-02  -0.1028087073E-02
   0.3009549613E+00   0.5041925462E-01   0.9238457033E-04  -0.1315979293E-05   0.0000000000E+00   0.0000000000E+00   0.1775037089E-01   0.4048367128E-02  -0.1080169480E-02
   0.3172164732E+00   0.5750772138E-01   0.9462544989E-04  -0.1553832960E-05   0.0000000000E+00   0.0000000000E+00   0.1851861289E-01   0.4042424472E-02  -0.8060847266E-03
   0.6750575138E-01   0.1960150293E+00   0.1872318336E-04  -0.3794374760E-04   0.0000000000E+00   0.0000000000E+00   0.3226862894E-01   0.3993511213E-03   0.3888214690E-02
   0.4924085220E-01   0.2004249283E+00   0.1324767214E-04  -0.4139290783E-04   0.0000000000E+00   0.0000000000E+00   0.3127022289E-01   0.1297138333E-02   0.3538987700E-02
   0.7790677420E-01   0.2147025539E+00   0.2012497981E-04  -0.3837616541E-04   0.0000000000E+00   0.0000000000E+00   0.3072036797E-01  -0.5003249520E-04   0.3313099441E-02
   0.8818901695E-01   0.1985482156E+00   0.2456620184E-04  -0.3444661583E-04   0.0000000000E+00   0.0000000000E+00   0.3248911599E-01  -0.5879131950E-03   0.3654681933E-02
   0.1075317087E+00   0.1987165830E+00   0.3033774819E-04  -0.3079464044E-04   0.0000000000E+00   0.0000000000E+00   0.3289717220E-01  -0.1105173354E-02   0.3110321538E-02
   0.1129592242E+00   0.1450433713E+00   0.3915204637E-04  -0.2136358926E-04   0.0000000000E+00   0.0000000000E+00   0.3459792908E-01  -0.4188452599E-02   0.6854922912E-03
   0.1049133133E+00   0.1659175610E+00   0.3333553163E-04  -0.2642512143E-04   0.0000000000E+00   0.0000000000E+00   0.3456259444E-01  -0.2827827041E-02   0.2463849963E-02
   0.9142683645E-01   0.1511568852E+00   0.3100939411E-04  -0.2679951012E-04   0.0000000000E+00   0.0000000000E+00   0.3599280854E-01  -0.2457921484E-02   0.2569785874E-02
   0.9606313918E-01   0.9589829862E-01   0.4662820323E-04  -0.1609898710E-04   0.0000000000E+00   0.0000000000E+00   0.3075362112E-01  -0.5240985936E-02  -0.5556412026E-02
   0.1103453583E+00   0.7661045787E-01   0.5789377345E-04  -0.1014989721E-04   0.0000000000E+00   0.0000000000E+00   0.2015951856E-01  -0.7086523613E-02  -0.7720346051E-02
   0.1958269332E+00   0.2156734272E+00   0.5504312632E-04  -0.1992243394E-04   0.0000000000E+00   0.0000000000E+00   0.3306417081E-01  -0.4735102890E-03  -0.2065475933E-03
   0.2271468876E+00   0.3584727792E-01   0.8312258372E-04  -0.8957992124E-06   0.0000000000E+00   0.0000000000E+00   0.1438034200E-01   0.2638340336E-02  -0.2476572476E-02
   0.2483326755E+00   0.3603466270E-01   0.8574054102E-04  -0.8822801871E-06   0.0000000000E+00   0.0000000000E+00   0.1548543688E-01   0.3287739457E-02  -0.1885934270E-02
   0.2760112840E+00   0.1827684459E+00   0.8039339853E-04  -0.1111640452E-04   0.0000000000E+00   0.0000000000E+00   0.2898841178E-01   0.3369544826E-03  -0.1352935338E-02
   0.2350683813E+00   0.2157982645E+00   0.6669405328E-04  -0.1681125956E-04   0.0000000000E+00   0.0000000000E+00   0.3239737645E-01  -0.1233042237E-03  -0.7733553626E-03
   0.3171423863E+00   0.2129551790E+00   0.9020285210E-04  -0.1374952002E-04   0.0000000000E+00   0.0000000000E+00   0.3089441866E-01   0.2439838449E-03  -0.4518356373E-03
   0.3524999940E+00   0.1920283767E+00   0.1000000000E-03  -0.1117277250E-04   0.0000000000E+00   0.0000000000E+00   0.2910989971E-01   0.5435962121E-03  -0.4843842762E-05
   0.2950534232E+00   0.2154682001E+00   0.8393648815E-04  -0.1442007428E-04   0.0000000000E+00   0.0000000000E+00   0.3121961254E-01   0.1271022360E-03  -0.6825162497E-03
   0.3368596694E+00   0.2175442709E+00   0.9562597456E-04  -0.1413768225E-04   0.0000000000E+00   0.0000000000E+00   0.3110647799E-01   0.1619926271E-03  -0.1852051410E-03
   0.5188886133E-01   0.1647076908E+00   0.1626210523E-04  -0.3687736825E-04   0.0000000000E+00   0.0000000000E+00   0.3635680961E-01   0.2344461730E-02   0.3728760136E-02
   0.2493491136E+00   0.9572397112E-01   0.8133278368E-04  -0.3751839124E-05   0.0000000000E+00   0.0000000000E+00   0.2124027870E-01   0.1613334312E-02  -0.3042470556E-02
   0.2668473091E+00   0.8638934236E-01   0.8522856238E-04  -0.2979561731E-05   0.0000000000E+00   0.0000000000E+00   0.1995838159E-01   0.2199777944E-02  -0.2505693389E-02
   0.2666677660E+00   0.1058521412E+00   0.8375575922E-04  -0.4235230529E-05   0.0000000000E+00   0.0000000000E+00   0.2199835432E-01   0.1660800483E-02  -0.2472228573E-02
   0.3524999940E+00   0.2112048163E+00   0.1000000000E-03  -0.1334590767E-04   0.0000000000E+00   0.0000000000E+00   0.3036981847E-01   0.2099009306E-03   0.5048891449E-04
   0.3026903000E+00   0.2005340954E+00   0.8661280102E-04  -0.1252394443E-04   0.0000000000E+00   0.0000000000E+00   0.3018040605E-01   0.3905376958E-03  -0.8181906001E-03
   0.2980264144E+00   0.1827375106E+00   0.8611209591E-04  -0.1061989748E-04   0.0000000000E+00   0.0000000000E+00   0.2876308419E-01   0.6227067375E-03  -0.1038635633E-02
   0.3016414631E+00   0.1249172696E+00   0.8958096474E-04  -0.5272015348E-05   0.0000000000E+00   0.0000000000E+00   0.2359115290E-01   0.1867864087E-02  -0.1434655580E-02
   0.2819519410E+00   0.5575002830E-01   0.8942511934E-04  -0.1510935844E-05   0.0000000000E+00   0.0000000000E+00   0.1769167150E-01   0.3558666422E-02  -0.1649354749E-02
   0.3005402077E+00   0.6732781821E-01   0.9177918794E-04  -0.1932743700E-05   0.0000000000E+00   0.0000000000E+00   0.1875381737E-01   0.3448112006E-02  -0.1336262739E-02
   0.3184784122E+00   0.1535215224E+00   0.9218840939E-04  -0.7496504528E-05   0.0000000000E+00   0.0000000000E+00   0.2604136936E-01   0.1313003785E-02  -0.8325929005E-03