 VARIABLES = X,Y,DU1,DU2,U1,U2,S11,S22,S33,S12
 ZONE, T="0.1000D+01" F=FEPOINT, I= 2593 J= 4984
   0.3436449603E-01  -0.8274709873E-01   0.9862762519E-04   0.1641667135E-04   0.0000000000E+00   0.0000000000E+00  -0.8376357737E-03   0.3173435916E-03   0.0000000000E+00   0.1053865324E-02
   0.1741977690E-01  -0.7234168690E-01   0.9571859746E-04   0.1105030027E-04   0.0000000000E+00   0.0000000000E+00  -0.1318402876E-03  -0.4117254192E-03   0.0000000000E+00   0.1520395986E-02
   0.2010385048E-01  -0.9998811850E-01   0.1038508754E-03   0.1188250174E-04   0.0000000000E+00   0.0000000000E+00  -0.1118666537E-02   0.6207442462E-04   0.0000000000E+00   0.3689610015E-03
   0.2589216801E-01  -0.7754434316E-01   0.9720371331E-04   0.1378683869E-04   0.0000000000E+00   0.0000000000E+00  -0.2722774311E-03   0.7882239921E-04   0.0000000000E+00   0.1253862349E-02
   0.1876175556E-01  -0.8616486180E-01   0.9972756214E-04   0.1150380378E-04   0.0000000000E+00   0.0000000000E+00  -0.6378061572E-03  -0.1602504515E-03   0.0000000000E+00   0.1037851594E-02
   0.2723411673E-01  -0.9136760287E-01   0.1011827340E-03   0.1415562956E-04   0.0000000000E+00   0.0000000000E+00  -0.1308365093E-02   0.6579337733E-04   0.0000000000E+00   0.6514603453E-03
  -0.8865288573E-02  -0.4581744178E-01   0.1278880738E-04   0.7786318647E-05   0.0000000000E+00   0.0000000000E+00   0.6235622243E-04  -0.2582319568E-02   0.0000000000E+00  -0.8576769677E-03
  -0.7134682749E-02  -0.3620700771E-01   0.1652560060E-04   0.6826088576E-05   0.0000000000E+00   0.0000000000E+00   0.7841711712E-04  -0.3244389916E-02   0.0000000000E+00  -0.4928420287E-03
  -0.1567253991E-01  -0.3959631015E-01   0.1507848691E-04   0.1034675454E-04   0.0000000000E+00   0.0000000000E+00   0.7565734017E-03   0.6438335530E-03   0.0000000000E+00   0.1813976586E-03
  -0.8000052544E-02  -0.4101220536E-01   0.1459008602E-04   0.7323735257E-05   0.0000000000E+00   0.0000000000E+00   0.2318724196E-04  -0.3008565737E-02   0.0000000000E+00  -0.6861886172E-03
  -0.1140363017E-01  -0.3790160390E-01   0.1578342512E-04   0.8641502596E-05   0.0000000000E+00   0.0000000000E+00   0.4685069078E-03  -0.1243748096E-02   0.0000000000E+00  -0.1129108859E-03
  -0.1226894627E-01  -0.4270690459E-01   0.1390212962E-04   0.9039714390E-05   0.0000000000E+00   0.0000000000E+00   0.4050477708E-03  -0.9156926002E-03   0.0000000000E+00  -0.3500667686E-03
  -0.1388674593E+00  -0.6584309485E-01   0.3062678915E-05   0.3636925356E-04   0.0000000000E+00   0.0000000000E+00   0.5145995997E-02  -0.2742519773E-03   0.0000000000E+00   0.8072906746E-03
  -0.1297071837E+00  -0.8318558075E-01   0.1330262565E-05   0.3572065254E-04   0.0000000000E+00   0.0000000000E+00   0.1428827773E-02  -0.6485052110E-04   0.0000000000E+00   0.5679823558E-03
  -0.1194718024E+00  -0.6729520933E-01   0.3748576828E-05   0.3435387084E-04   0.0000000000E+00   0.0000000000E+00   0.4502792190E-02  -0.2047699961E-03   0.0000000000E+00   0.1055383987E-02
  -0.1342872602E+00  -0.7451428376E-01   0.2257763943E-05   0.3609903920E-04   0.0000000000E+00   0.0000000000E+00   0.3266349850E-02  -0.1738297984E-03   0.0000000000E+00   0.6989641978E-03
  -0.1245895884E+00  -0.7524035293E-01   0.2447614104E-05   0.3508306727E-04   0.0000000000E+00   0.0000000000E+00   0.2941165629E-02  -0.1536281555E-03   0.0000000000E+00   0.7996486529E-03
  -0.1291696127E+00  -0.6656907168E-01   0.3427336251E-05   0.3543821696E-04   0.0000000000E+00   0.0000000000E+00   0.4869701234E-02  -0.2211247320E-03   0.0000000000E+00   0.9328757464E-03
  -0.1816876345E+00  -0.7305681675E-01   0.7044568610E-06   0.3899665351E-04   0.0000000000E+00   0.0000000000E+00   0.4126478624E-02  -0.1437248070E-03   0.0000000000E+00   0.1949308775E-03
  -0.1818938901E+00  -0.5114320695E-01   0.1395923676E-05   0.3841484904E-04   0.0000000000E+00   0.0000000000E+00   0.8287505539E-02  -0.4260944328E-03   0.0000000000E+00   0.2439241109E-03
  -0.2000000030E+00  -0.5996106116E-01   0.0000000000E+00   0.3893753942E-04   0.0000000000E+00   0.0000000000E+00   0.6613479555E-02  -0.2925283025E-03   0.0000000000E+00   0.8082422018E-05
  -0.1817907636E+00  -0.6209996023E-01   0.1048430007E-05   0.3875737200E-04   0.0000000000E+00   0.0000000000E+00   0.6210453519E-02  -0.2832716746E-03   0.0000000000E+00   0.2234663688E-03
  -0.1909470254E+00  -0.5555206400E-01   0.6266026417E-06   0.3874439638E-04   0.0000000000E+00   0.0000000000E+00   0.7444845090E-02  -0.3648848470E-03   0.0000000000E+00   0.1205353997E-03
  -0.1908437211E+00  -0.6650886177E-01   0.4569044418E-06   0.3904612692E-04   0.0000000000E+00   0.0000000000E+00   0.5369267995E-02  -0.2224538601E-03   0.0000000000E+00   0.9836483287E-04
  -0.1664512860E-02  -0.5248773346E-02   0.3673863024E-04   0.2711574219E-05   0.0000000000E+00   0.0000000000E+00   0.9242991067E-03   0.7712996215E-02   0.0000000000E+00   0.4185123313E-02
   0.3795104119E-04  -0.4340288152E-02   0.3795104119E-04   0.5421079607E-06   0.0000000000E+00   0.0000000000E+00  -0.5297908727E-03  -0.1308686837E-01   0.0000000000E+00  -0.8518199339E-03
  -0.1310371350E-02  -0.3535002204E-02   0.3911913978E-04   0.2422165893E-05   0.0000000000E+00   0.0000000000E+00   0.1708420666E-02   0.1534997591E-01   0.0000000000E+00   0.6978287581E-02
  -0.8133072568E-03  -0.4794460210E-02   0.3731848720E-04   0.1697380368E-05   0.0000000000E+00   0.0000000000E+00   0.7875635785E-03  -0.1582734467E-02   0.0000000000E+00   0.1702785146E-02
  -0.6362436833E-03  -0.3937668210E-02   0.3850155966E-04   0.1459340258E-05   0.0000000000E+00   0.0000000000E+00   0.6805318595E-03   0.1511797340E-02   0.0000000000E+00   0.2462901439E-02
  -0.1487503580E-02  -0.4391890994E-02   0.3786740970E-04   0.2563885696E-05   0.0000000000E+00   0.0000000000E+00   0.3458768750E-03   0.9349883836E-02   0.0000000000E+00   0.5242016194E-02
  -0.1837350116E+00   0.6668409211E-01   0.4322407858E-05   0.2893310558E-04   0.0000000000E+00   0.0000000000E+00   0.2907736483E-01  -0.2653746912E-03   0.0000000000E+00  -0.2302794245E-03
  -0.1729749819E+00   0.8180701394E-01   0.7800098803E-05   0.2669204434E-04   0.0000000000E+00   0.0000000000E+00   0.3157908659E-01  -0.9412147974E-04   0.0000000000E+00  -0.2619787627E-03
  -0.2000000030E+00   0.8002757789E-01   0.0000000000E+00   0.2757969016E-04   0.0000000000E+00   0.0000000000E+00   0.3140467563E-01  -0.8988621813E-04   0.0000000000E+00  -0.1034671712E-04
  -0.1783550620E+00   0.7424559167E-01   0.5995964030E-05   0.2785497109E-04   0.0000000000E+00   0.0000000000E+00   0.3031150382E-01  -0.1925297498E-03   0.0000000000E+00  -0.2521260496E-03
  -0.1864875147E+00   0.8091746721E-01   0.3885286692E-05   0.2730341000E-04   0.0000000000E+00   0.0000000000E+00   0.3155659079E-01  -0.7910095038E-04   0.0000000000E+00  -0.1358260044E-03
  -0.1918674328E+00   0.7335590877E-01   0.2243189378E-05   0.2833016722E-04   0.0000000000E+00   0.0000000000E+00   0.3023264290E-01  -0.1778703276E-03   0.0000000000E+00  -0.9573365707E-04
  -0.1510001576E+00   0.8205288521E-01   0.1411042875E-04   0.2513701439E-04   0.0000000000E+00   0.0000000000E+00   0.3123541464E-01  -0.1361744071E-03   0.0000000000E+00  -0.5484009454E-03
  -0.1300397707E+00   0.8301042016E-01   0.2012730864E-04   0.2275405627E-04   0.0000000000E+00   0.0000000000E+00   0.3072299160E-01  -0.1865951501E-03   0.0000000000E+00  -0.9035064432E-03
  -0.1399810017E+00   0.1000217650E+00   0.1899934113E-04   0.2176399482E-04   0.0000000000E+00   0.0000000000E+00   0.3394566503E-01   0.3363391079E-04   0.0000000000E+00  -0.1743640775E-04
  -0.1405199562E+00   0.8253175077E-01   0.1712682207E-04   0.2404357128E-04   0.0000000000E+00   0.0000000000E+00   0.3108443775E-01  -0.1090551867E-03   0.0000000000E+00  -0.7175737903E-03
  -0.1350103498E+00   0.9151613634E-01   0.1959224589E-04   0.2230624258E-04   0.0000000000E+00   0.0000000000E+00   0.3226183352E-01  -0.7875050153E-04   0.0000000000E+00  -0.4368377403E-03
  -0.1454906750E+00   0.9103737303E-01   0.1645197562E-04   0.2349442899E-04   0.0000000000E+00   0.0000000000E+00   0.3253748234E-01  -0.7772400234E-04   0.0000000000E+00  -0.3052017396E-03
  -0.7229724730E-03   0.5368609508E-03   0.4884329903E-04   0.2108392766E-05   0.0000000000E+00   0.0000000000E+00   0.2137178383E+00   0.6357558681E-01   0.0000000000E+00  -0.1175606119E-01
  -0.3190677515E-03   0.4744947674E-03   0.4948121350E-04   0.1457609393E-05   0.0000000000E+00   0.0000000000E+00   0.2460559394E+00   0.1345119002E+00   0.0000000000E+00  -0.3983165499E-01
  -0.2686666632E-03   0.8920412594E-03   0.4968934084E-04   0.1600486379E-05   0.0000000000E+00   0.0000000000E+00   0.1721984340E+00   0.1345260853E+00   0.0000000000E+00  -0.2494460752E-01
  -0.5210251319E-03   0.5056928159E-03   0.4915720710E-04   0.1797942891E-05   0.0000000000E+00   0.0000000000E+00   0.2293555717E+00   0.9283147654E-01   0.0000000000E+00  -0.2673594521E-01
  -0.2938455238E-03   0.6832516317E-03   0.4960697521E-04   0.1512680689E-05   0.0000000000E+00   0.0000000000E+00   0.2076012789E+00   0.1455113185E+00   0.0000000000E+00  -0.3417961916E-01
  -0.4957369124E-03   0.7143750896E-03   0.4934896059E-04   0.1778394612E-05   0.0000000000E+00   0.0000000000E+00   0.1947707490E+00   0.1011725722E+00   0.0000000000E+00  -0.2535734537E-01
  -0.1790876345E-02   0.1028217193E-02   0.4790901530E-04   0.3260032563E-05   0.0000000000E+00   0.0000000000E+00   0.1448080261E+00   0.3283080568E-01   0.0000000000E+00  -0.1284500093E-03
  -0.1147444284E-02   0.8206659289E-03   0.4851464600E-04   0.2611853924E-05   0.0000000000E+00   0.0000000000E+00   0.1720058545E+00   0.5033580137E-01   0.0000000000E+00  -0.8266155390E-02
  -0.1046613069E-02   0.1361289903E-02   0.4901122117E-04   0.2460342731E-05   0.0000000000E+00   0.0000000000E+00   0.1463196447E+00   0.6844509737E-01   0.0000000000E+00  -0.2083473368E-01
  -0.1469175041E-02   0.9244570466E-03   0.4819716898E-04   0.2951426590E-05   0.0000000000E+00   0.0000000000E+00   0.1540910547E+00   0.3908104325E-01   0.0000000000E+00  -0.2820124779E-02
  -0.1096989992E-02   0.1090958646E-02   0.4880161806E-04   0.2516826383E-05   0.0000000000E+00   0.0000000000E+00   0.1614019021E+00   0.6131933043E-01   0.0000000000E+00  -0.1631018784E-01
  -0.1418712975E-02   0.1194741937E-02   0.4849191520E-04   0.2848576680E-05   0.0000000000E+00   0.0000000000E+00   0.1505656251E+00   0.5120121556E-01   0.0000000000E+00  -0.1155918638E-01
  -0.1452978943E-04   0.1794153244E-02   0.4995533487E-04   0.2004674166E-05   0.0000000000E+00   0.0000000000E+00   0.1190404247E+00   0.1058568808E+00   0.0000000000E+00  -0.2172411738E-02
  -0.2589762833E-05   0.1299011962E-02   0.4995791607E-04   0.1737121666E-05   0.0000000000E+00   0.0000000000E+00   0.1392362384E+00   0.1262050301E+00   0.0000000000E+00  -0.2800554376E-02
   0.4378036839E-03   0.1431197537E-02   0.5029910387E-04   0.1914597358E-05   0.0000000000E+00   0.0000000000E+00   0.1358688972E+00   0.1097156335E+00   0.0000000000E+00   0.1609461344E-01
  -0.8559498732E-05   0.1546589012E-02   0.4995690287E-04   0.1877361712E-05   0.0000000000E+00   0.0000000000E+00   0.1267226614E+00   0.1123198584E+00   0.0000000000E+00  -0.2441510595E-02
   0.2176070919E-03   0.1365075921E-02   0.5012863386E-04   0.1797091313E-05   0.0000000000E+00   0.0000000000E+00   0.1381251052E+00   0.1203412269E+00   0.0000000000E+00   0.8080488356E-02
   0.2116244682E-03   0.1612643354E-02   0.5011474025E-04   0.1927594417E-05   0.0000000000E+00   0.0000000000E+00   0.1278268474E+00   0.1115457576E+00   0.0000000000E+00   0.6227613639E-02
   0.6554659076E-03   0.2025894779E-02   0.5040297664E-04   0.2258649110E-05   0.0000000000E+00   0.0000000000E+00   0.1152339167E+00   0.8907996929E-01   0.0000000000E+00   0.1467405539E-01
   0.3204690655E-03   0.1909985169E-02   0.5018016246E-04   0.2092878566E-05   0.0000000000E+00   0.0000000000E+00   0.1177024345E+00   0.9980479522E-01   0.0000000000E+00   0.7677513761E-02
   0.5466374773E-03   0.1728554906E-02   0.5035372129E-04   0.2095425820E-05   0.0000000000E+00   0.0000000000E+00   0.1232163412E+00   0.9540069710E-01   0.0000000000E+00   0.1469323455E-01
   0.9672488249E-03   0.4206079692E-04   0.5237713190E-04   0.2497926517E-05   0.0000000000E+00   0.0000000000E+00   0.1874155332E+00   0.3853690934E-01   0.0000000000E+00  -0.5628392436E-01
   0.6141833170E-03   0.2085488203E-03   0.5127239499E-04   0.1851539317E-05   0.0000000000E+00   0.0000000000E+00   0.2743638097E+00   0.5878633950E-01   0.0000000000E+00  -0.1476279109E-01
   0.6273436155E-03  -0.1688770598E-03   0.5255035654E-04   0.2018217170E-05   0.0000000000E+00   0.0000000000E+00   0.1660434804E+00   0.6268786806E-01   0.0000000000E+00  -0.1026975242E+00
   0.7907390401E-03   0.1253358376E-03   0.5184773306E-04   0.2205767560E-05   0.0000000000E+00   0.0000000000E+00   0.2258614777E+00   0.4027661257E-01   0.0000000000E+00  -0.3866143966E-01
   0.6512743901E-03   0.2088694219E-04   0.5191074614E-04   0.2025780991E-05   0.0000000000E+00   0.0000000000E+00   0.2022935820E+00   0.4501493190E-01   0.0000000000E+00  -0.6415077411E-01
   0.7972599086E-03  -0.6338921941E-04   0.5242746164E-04   0.2276981991E-05   0.0000000000E+00   0.0000000000E+00   0.2132164118E+00   0.7367482296E-01   0.0000000000E+00  -0.6959171528E-01
   0.2025983679E-02   0.1621166113E-03   0.5347249869E-04   0.3648190296E-05   0.0000000000E+00   0.0000000000E+00   0.1304823511E+00   0.2457438892E-01   0.0000000000E+00  -0.3463530923E-01
   0.1350867497E-02   0.3705699795E-03   0.5224375653E-04   0.2870090482E-05   0.0000000000E+00   0.0000000000E+00   0.1745142545E+00   0.3264516666E-01   0.0000000000E+00  -0.2246918177E-01
   0.1507455765E-02  -0.2198336383E-03   0.5374399459E-04   0.3212602671E-05   0.0000000000E+00   0.0000000000E+00   0.1246052705E+00   0.3651799233E-01   0.0000000000E+00  -0.5595026519E-01
   0.1688456688E-02   0.2663678459E-03   0.5288916826E-04   0.3283682888E-05   0.0000000000E+00   0.0000000000E+00   0.1491755756E+00   0.2686470847E-01   0.0000000000E+00  -0.2915788194E-01
   0.1429116343E-02   0.7538771087E-04   0.5294859284E-04   0.3060886872E-05   0.0000000000E+00   0.0000000000E+00   0.1505660227E+00   0.3302014106E-01   0.0000000000E+00  -0.4268782056E-01
   0.1766681297E-02  -0.2884227355E-04   0.5356976721E-04   0.3446636450E-05   0.0000000000E+00   0.0000000000E+00   0.1329278018E+00   0.3283655426E-01   0.0000000000E+00  -0.4429428699E-01
   0.4245001643E-02  -0.1782916279E-02   0.5829782293E-04   0.5526211195E-05   0.0000000000E+00   0.0000000000E+00   0.4839779242E-01   0.2259695628E-01   0.0000000000E+00  -0.3435599134E-01
   0.3128729771E-02  -0.2029312926E-02   0.5838066072E-04   0.4656463989E-05   0.0000000000E+00   0.0000000000E+00   0.3669552494E-01   0.3016760007E-01   0.0000000000E+00  -0.3520035896E-01
   0.3802586481E-02  -0.3044245562E-02   0.6016800072E-04   0.5088717813E-05   0.0000000000E+00   0.0000000000E+00   0.2463186479E-01   0.2573021375E-01   0.0000000000E+00  -0.2776050960E-01
   0.3686841045E-02  -0.1906087009E-02   0.5831469479E-04   0.5118931218E-05   0.0000000000E+00   0.0000000000E+00   0.4432948481E-01   0.2698309712E-01   0.0000000000E+00  -0.3500939180E-01
   0.3465694610E-02  -0.2536775387E-02   0.5931080955E-04   0.4876563426E-05   0.0000000000E+00   0.0000000000E+00   0.2934840634E-01   0.2679727859E-01   0.0000000000E+00  -0.3093437690E-01
   0.4023785918E-02  -0.2413555324E-02   0.5922487829E-04   0.5332946107E-05   0.0000000000E+00   0.0000000000E+00   0.3616604311E-01   0.2497695292E-01   0.0000000000E+00  -0.3163373019E-01
   0.1296888305E+00   0.8323742134E-01   0.7972254591E-04   0.2266894496E-04   0.0000000000E+00   0.0000000000E+00   0.3073392994E-01  -0.1807756099E-03   0.0000000000E+00   0.9025191751E-03
   0.1400810016E+00   0.1000217647E+00   0.8100055525E-04   0.2176365558E-04   0.0000000000E+00   0.0000000000E+00   0.3394549785E-01   0.3110902277E-04   0.0000000000E+00   0.1329574982E-04
   0.1200749146E+00   0.1000192987E+00   0.7491757011E-04   0.1929766195E-04   0.0000000000E+00   0.0000000000E+00   0.3271022564E-01   0.4082521484E-04   0.0000000000E+00   0.2871117181E-04
   0.1348848767E+00   0.9162964225E-01   0.8032965806E-04   0.2226534808E-04   0.0000000000E+00   0.0000000000E+00   0.3226747977E-01  -0.8213395297E-04   0.0000000000E+00   0.4348802914E-03
   0.1300779277E+00   0.1000206108E+00   0.7793271748E-04   0.2060977094E-04   0.0000000000E+00   0.0000000000E+00   0.3350661694E-01   0.6768413313E-04   0.0000000000E+00   0.1993443072E-04
   0.1248819707E+00   0.9162838712E-01   0.7741465633E-04   0.2101022164E-04   0.0000000000E+00   0.0000000000E+00   0.3165590413E-01  -0.9402276193E-04   0.0000000000E+00   0.4957037972E-03
   0.1387107539E+00   0.6589764014E-01   0.8379089434E-04   0.2582023513E-04   0.0000000000E+00   0.0000000000E+00   0.2864160845E-01  -0.5527304501E-03   0.0000000000E+00   0.1109820449E-02
   0.1188084296E+00   0.6744994856E-01   0.7841357815E-04   0.2305846058E-04   0.0000000000E+00   0.0000000000E+00   0.2854564895E-01  -0.7201912248E-03   0.0000000000E+00   0.1709987662E-02
   0.1341998567E+00   0.7456755499E-01   0.8182169903E-04   0.2427259114E-04   0.0000000000E+00   0.0000000000E+00   0.2963775759E-01  -0.4127146407E-03   0.0000000000E+00   0.1034133926E-02
   0.1242486043E+00   0.7534372304E-01   0.7904627682E-04   0.2289804341E-04   0.0000000000E+00   0.0000000000E+00   0.2960052784E-01  -0.4358183625E-03   0.0000000000E+00   0.1287067888E-02
   0.1287595915E+00   0.6667388170E-01   0.8110546928E-04   0.2452670224E-04   0.0000000000E+00   0.0000000000E+00   0.2865622554E-01  -0.6045778273E-03   0.0000000000E+00   0.1396477745E-02
   0.1817860671E+00   0.7311605028E-01   0.9495708698E-04   0.2811218293E-04   0.0000000000E+00   0.0000000000E+00   0.3014805676E-01  -0.1764812026E-03   0.0000000000E+00   0.2318803873E-03
   0.1819987485E+00   0.5120234595E-01   0.9559450230E-04   0.3061104524E-04   0.0000000000E+00   0.0000000000E+00   0.2654082979E-01  -0.5106008659E-03   0.0000000000E+00   0.2692084105E-03
   0.2001000030E+00   0.6002993388E-01   0.1000000000E-03   0.2993518149E-04   0.0000000000E+00   0.0000000000E+00   0.2798587184E-01  -0.3390183747E-03   0.0000000000E+00   0.1032705406E-04
   0.1818924138E+00   0.6215922811E-01   0.9528176042E-04   0.2939161078E-04   0.0000000000E+00   0.0000000000E+00   0.2834574892E-01  -0.3479181612E-03   0.0000000000E+00   0.2574489395E-03
   0.1910493265E+00   0.5561621993E-01   0.9774045411E-04   0.3035122673E-04   0.0000000000E+00   0.0000000000E+00   0.2725837010E-01  -0.4274671902E-03   0.0000000000E+00   0.1351821613E-03
   0.1909431163E+00   0.6657307800E-01   0.9756733962E-04   0.2911150263E-04   0.0000000000E+00   0.0000000000E+00   0.2906965541E-01  -0.2587854327E-03   0.0000000000E+00   0.1151174183E-03
   0.2208280415E-02  -0.5800538487E-03   0.5514574473E-04   0.3939829281E-05   0.0000000000E+00   0.0000000000E+00   0.8673091430E-01   0.3192008315E-01   0.0000000000E+00  -0.4888881335E-01
   0.1607430408E-02  -0.8027577288E-03   0.5533104750E-04   0.3319654190E-05   0.0000000000E+00   0.0000000000E+00   0.6813548335E-01   0.4650593647E-01   0.0000000000E+00  -0.5599159181E-01
   0.2111338455E-02  -0.1493026149E-02   0.5711210463E-04   0.3759750757E-05   0.0000000000E+00   0.0000000000E+00   0.3922410582E-01   0.3973146473E-01   0.0000000000E+00  -0.4142285607E-01
   0.1907828436E-02  -0.6913834444E-03   0.5521141619E-04   0.3652115551E-05   0.0000000000E+00   0.0000000000E+00   0.8113769452E-01   0.4067278017E-01   0.0000000000E+00  -0.5257148213E-01
   0.1859432654E-02  -0.1147885315E-02   0.5626979402E-04   0.3546265108E-05   0.0000000000E+00   0.0000000000E+00   0.5049598104E-01   0.4026994278E-01   0.0000000000E+00  -0.4700726562E-01
   0.2159806802E-02  -0.1036510826E-02   0.5612629175E-04   0.3878933636E-05   0.0000000000E+00   0.0000000000E+00   0.6277379198E-01   0.3751796841E-01   0.0000000000E+00  -0.4714684596E-01
   0.2916280075E-02  -0.4207024428E-02   0.6184716515E-04   0.4087032408E-05   0.0000000000E+00   0.0000000000E+00   0.7985644014E-02   0.2126775137E-01   0.0000000000E+00  -0.1535464298E-01
   0.1355121919E-02  -0.3573958190E-02   0.6094291902E-04   0.2341220132E-05   0.0000000000E+00   0.0000000000E+00   0.1450511563E-02   0.1403300833E-01   0.0000000000E+00  -0.6267089785E-02
   0.1672201740E-02  -0.5298663399E-02   0.6332545983E-04   0.2602110599E-05   0.0000000000E+00   0.0000000000E+00   0.7649192464E-03   0.6495462678E-02   0.0000000000E+00  -0.3663250884E-02
   0.2135706004E-02  -0.3890419154E-02   0.6140010417E-04   0.3286395654E-05   0.0000000000E+00   0.0000000000E+00   0.6202804891E-02   0.1892157645E-01   0.0000000000E+00  -0.1170416836E-01
   0.1513723388E-02  -0.4436314849E-02   0.6219568754E-04   0.2467730640E-05   0.0000000000E+00   0.0000000000E+00   0.2706922328E-03   0.8270518000E-02   0.0000000000E+00  -0.4695154056E-02
   0.2294262285E-02  -0.4752837669E-02   0.6260757475E-04   0.3350820912E-05   0.0000000000E+00   0.0000000000E+00   0.3966741871E-02   0.1501414036E-01   0.0000000000E+00  -0.9312756239E-02
   0.1281314452E-02  -0.1194301899E-02   0.5626554239E-04   0.2780440793E-05   0.0000000000E+00   0.0000000000E+00   0.3141916688E-01   0.5160013159E-01   0.0000000000E+00  -0.4336743234E-01
   0.6476598566E-03  -0.1079121058E-02   0.5595057760E-04   0.1662141783E-05   0.0000000000E+00   0.0000000000E+00   0.4643891047E-02   0.5647922691E-01   0.0000000000E+00  -0.2248229140E-01
   0.1111335464E-02  -0.2064671618E-02   0.5828635422E-04   0.2235151659E-05   0.0000000000E+00   0.0000000000E+00   0.5043553185E-02   0.3211524431E-01   0.0000000000E+00  -0.1457891476E-01
   0.9644745617E-03  -0.1136648577E-02   0.5609546770E-04   0.2284192879E-05   0.0000000000E+00   0.0000000000E+00   0.2485340479E-01   0.5411208244E-01   0.0000000000E+00  -0.3505154717E-01
   0.8795956779E-03  -0.1571878815E-02   0.5721648189E-04   0.1966235469E-05   0.0000000000E+00   0.0000000000E+00   0.2726184498E-02   0.3711403916E-01   0.0000000000E+00  -0.1637078115E-01
   0.1196383208E-02  -0.1629488904E-02   0.5733425818E-04   0.2505596108E-05   0.0000000000E+00   0.0000000000E+00   0.1490753087E-01   0.4151041328E-01   0.0000000000E+00  -0.2890995845E-01
   0.9926753973E-03  -0.5528440486E-03   0.5431167427E-04   0.2555931418E-05   0.0000000000E+00   0.0000000000E+00   0.7329829765E-01   0.6400265080E-01   0.0000000000E+00  -0.7316529706E-01
   0.1300076398E-02  -0.6777809243E-03   0.5484479799E-04   0.2957786741E-05   0.0000000000E+00   0.0000000000E+00   0.7242453875E-01   0.5376567215E-01   0.0000000000E+00  -0.6238558180E-01
   0.1137069706E-02  -0.8735677693E-03   0.5536344571E-04   0.2673361663E-05   0.0000000000E+00   0.0000000000E+00   0.4914255134E-01   0.5602538921E-01   0.0000000000E+00  -0.5513269514E-01
   0.1444357737E-02  -0.9985074903E-03   0.5578359673E-04   0.3072429731E-05   0.0000000000E+00   0.0000000000E+00   0.4821299682E-01   0.5019358498E-01   0.0000000000E+00  -0.4853171460E-01
   0.5438297037E-04  -0.5996603290E-03   0.5438297037E-04   0.0000000000E+00   0.0000000000E+00   0.0000000000E+00   0.3656636676E-01   0.3170065679E-02   0.0000000000E+00   0.1466502388E-01
   0.5729022444E-04  -0.1590359676E-02   0.5729022444E-04   0.1969043858E-06   0.0000000000E+00   0.0000000000E+00   0.6932877400E-04  -0.1242298803E-01   0.0000000000E+00   0.4578782112E-02
   0.3510999195E-03  -0.8392146206E-03   0.5524528049E-04   0.1007144380E-05   0.0000000000E+00   0.0000000000E+00   0.2247627966E-01   0.3858761315E-01   0.0000000000E+00  -0.9072570891E-02
   0.5603199043E-04  -0.1095009571E-02   0.5603199043E-04   0.9888859304E-07   0.0000000000E+00   0.0000000000E+00  -0.1012760469E-01  -0.2905144833E-01   0.0000000000E+00   0.6311858389E-02
   0.3525337111E-03  -0.1334777072E-02   0.5667907209E-04   0.8928178835E-06   0.0000000000E+00   0.0000000000E+00  -0.2610933677E-03   0.2288140765E-01   0.0000000000E+00  -0.8186729669E-02
  -0.1400004447E+00  -0.9996326430E-01  -0.4436951540E-06   0.3673669942E-04   0.0000000000E+00   0.0000000000E+00  -0.1459938533E-02   0.1643704557E-04   0.0000000000E+00   0.1683282597E-04
  -0.1200007717E+00  -0.9996542458E-01  -0.7747131574E-06   0.3457642300E-04   0.0000000000E+00   0.0000000000E+00  -0.2234098917E-02   0.1303125114E-04   0.0000000000E+00   0.2615254378E-04
  -0.1348539092E+00  -0.9157438207E-01   0.3477915451E-06   0.3627313194E-04   0.0000000000E+00   0.0000000000E+00  -0.5427704808E-04  -0.3816043393E-04   0.0000000000E+00   0.2803918752E-03
  -0.1300005872E+00  -0.9996425871E-01  -0.5922201162E-06   0.3574229232E-04   0.0000000000E+00   0.0000000000E+00  -0.1789823060E-02   0.2458627965E-04   0.0000000000E+00   0.1963960479E-04
  -0.1248539234E+00  -0.9157545223E-01   0.3285709580E-06   0.3520296627E-04   0.0000000000E+00   0.0000000000E+00  -0.4177767785E-03  -0.2682704098E-04   0.0000000000E+00   0.3048992616E-03
  -0.1084658430E-01  -0.2442677397E-01   0.2201069900E-04   0.8371827517E-05   0.0000000000E+00   0.0000000000E+00   0.1286374088E-02   0.2025558818E-02   0.0000000000E+00   0.2138344359E-02
  -0.4972466059E-02  -0.2225576623E-01   0.2324835055E-04   0.5346671156E-05   0.0000000000E+00   0.0000000000E+00   0.1392469710E-03  -0.3084713287E-02   0.0000000000E+00   0.2961546564E-03
  -0.9082237118E-02  -0.1886447545E-01   0.2522129216E-04   0.7580754229E-05   0.0000000000E+00   0.0000000000E+00   0.1778727953E-02   0.3545082034E-02   0.0000000000E+00   0.3473307518E-02
  -0.7909539149E-02  -0.2334120557E-01   0.2261531123E-04   0.6924729597E-05   0.0000000000E+00   0.0000000000E+00   0.8215663905E-03  -0.3731120599E-03   0.0000000000E+00   0.1307517708E-02
  -0.7027383228E-02  -0.2056013422E-01   0.2420294175E-04   0.6450275234E-05   0.0000000000E+00   0.0000000000E+00   0.9669696200E-03   0.4808655412E-03   0.0000000000E+00   0.1802860719E-02
  -0.9964472538E-02  -0.2164561923E-01   0.2355415179E-04   0.7980773394E-05   0.0000000000E+00   0.0000000000E+00   0.1313586951E-02   0.2390693531E-02   0.0000000000E+00   0.2722338281E-02
   0.9790043759E-04  -0.7999433939E-01   0.9790043759E-04   0.5658809208E-05   0.0000000000E+00   0.0000000000E+00   0.4004858244E-05  -0.1122075752E-02   0.0000000000E+00   0.2575770855E-03
   0.1039215717E-03  -0.9999427483E-01   0.1039215717E-03   0.5726171770E-05   0.0000000000E+00   0.0000000000E+00   0.1394975157E-03   0.9266837435E-04   0.0000000000E+00  -0.1766622332E-03
   0.1008857542E-03  -0.8999428276E-01   0.1008857542E-03   0.5713337802E-05   0.0000000000E+00   0.0000000000E+00   0.6676373692E-04  -0.2783812355E-03   0.0000000000E+00   0.9626456593E-04
   0.1010390768E-01  -0.9999122525E-01   0.1039079043E-03   0.8775753555E-05   0.0000000000E+00   0.0000000000E+00  -0.3643966941E-03   0.4124255773E-04   0.0000000000E+00   0.1165021771E-03
   0.1010088770E-01  -0.8999122652E-01   0.1008879189E-03   0.8777082608E-05   0.0000000000E+00   0.0000000000E+00  -0.3062689674E-03  -0.3901780460E-03   0.0000000000E+00   0.3725528567E-03
   0.3338367577E-01  -0.6674013315E-01   0.9406447160E-04   0.1621214800E-04   0.0000000000E+00   0.0000000000E+00   0.4651090134E-03   0.1024170908E-02   0.0000000000E+00   0.8005534232E-03
   0.2366308726E-01  -0.5724229012E-01   0.9115266025E-04   0.1311958007E-04   0.0000000000E+00   0.0000000000E+00   0.5696058147E-03   0.7395975570E-03   0.0000000000E+00   0.8217203634E-03
   0.2852341131E-01  -0.6199117961E-01   0.9263840890E-04   0.1469789335E-04   0.0000000000E+00   0.0000000000E+00   0.6462155189E-03   0.1027965702E-02   0.0000000000E+00   0.7626729620E-03
   0.2054147362E-01  -0.6479201200E-01   0.9347811976E-04   0.1206509935E-04   0.0000000000E+00   0.0000000000E+00   0.1031059195E-03  -0.8746971506E-04   0.0000000000E+00   0.1124812299E-02
   0.2540172743E-01  -0.6954088477E-01   0.9489162875E-04   0.1365272729E-04   0.0000000000E+00   0.0000000000E+00  -0.5523917915E-04   0.3314633918E-03   0.0000000000E+00   0.1162301848E-02
  -0.4137771134E-02  -0.1720816181E-01   0.2631086587E-04   0.4720789762E-05   0.0000000000E+00   0.0000000000E+00   0.1994068634E-03  -0.2263911443E-02   0.0000000000E+00   0.7786616955E-03
   0.2498710532E-04  -0.1950490640E-01   0.2498710532E-04   0.2276399358E-05   0.0000000000E+00   0.0000000000E+00  -0.8898133107E-04  -0.1122952901E-01   0.0000000000E+00  -0.2114452303E-03
   0.2788298039E-04  -0.1505364794E-01   0.2788298039E-04   0.1801756910E-05   0.0000000000E+00   0.0000000000E+00  -0.1135808265E-03  -0.1192419361E-01   0.0000000000E+00  -0.2628859423E-03
  -0.2056423001E-02  -0.1835657140E-01   0.2561799850E-04   0.3462196440E-05   0.0000000000E+00   0.0000000000E+00   0.1211988749E-03  -0.6728728514E-02   0.0000000000E+00   0.1854384967E-03
   0.2638265707E-04  -0.1727927659E-01   0.2638265707E-04   0.2039607170E-05   0.0000000000E+00   0.0000000000E+00  -0.1569732194E-03  -0.1188102744E-01   0.0000000000E+00  -0.2437248730E-03
  -0.2054974419E-02  -0.1613084302E-01   0.2706658067E-04   0.3322184083E-05   0.0000000000E+00   0.0000000000E+00   0.1713968725E-03  -0.6836241086E-02   0.0000000000E+00   0.2493018000E-03
   0.1125969288E-01  -0.5600356605E-01   0.9070168211E-04   0.8825950813E-05   0.0000000000E+00   0.0000000000E+00   0.1275493157E-04  -0.1698437381E-02   0.0000000000E+00   0.1179889873E-02
   0.8881952939E-04  -0.5083881041E-01   0.8881952939E-04   0.4752493326E-05   0.0000000000E+00   0.0000000000E+00  -0.8006595875E-05  -0.5903905163E-02   0.0000000000E+00   0.1600042793E-03
   0.9304679672E-04  -0.6385795260E-01   0.9304679672E-04   0.5317400203E-05   0.0000000000E+00   0.0000000000E+00   0.1802722948E-04  -0.3617453167E-02   0.0000000000E+00   0.2512546377E-03