 VARIABLES = X,Y,Z,S11,S22,S33,S12,S13,S23
 ZONE, T="0.1000D+01" F=FEPOINT, I=   12 J=    2 ET=BRICK
   0.0000000000E+00   0.0000000000E+00   0.0000000000E+00   0.5427702495E+01   0.1173010501E-03   0.1173010501E-03   0.1237991785E-13  -0.1676749406E-13  -0.5885377031E-14
   0.1180000000E+01   0.8843782824E-15  -0.1146181385E-14   0.5427702495E+01   0.1173010500E-03   0.1173010500E-03   0.8297551934E-14  -0.6991105037E-14   0.1327651310E-14
   0.1180000000E+01   0.9214055450E+00   0.1489911600E-14   0.5427702495E+01   0.1173010500E-03   0.1173010500E-03   0.9311824017E-14   0.8327988877E-14   0.1398540506E-14
   0.0000000000E+00   0.9214055450E+00   0.0000000000E+00   0.5427702495E+01   0.1173010503E-03   0.1173010503E-03   0.1390276908E-13   0.2077088086E-13  -0.2809772979E-14
   0.0000000000E+00  -0.6395070959E-15   0.9214055450E+00   0.5427702495E+01   0.1173010503E-03   0.1173010503E-03  -0.1312488831E-13  -0.1786898342E-13  -0.8439694363E-14
   0.1180000000E+01  -0.1607452858E-14   0.9214055450E+00   0.5427702495E+01   0.1173010500E-03   0.1173010500E-03  -0.8995933153E-14  -0.8423398264E-14   0.3121683132E-15
   0.1180000000E+01   0.9214055450E+00   0.9214055450E+00   0.5427702494E+01   0.1173010498E-03   0.1173010498E-03  -0.1034464155E-13   0.9130082986E-14   0.3830575086E-15
   0.0000000000E+00   0.9214055450E+00   0.9214055450E+00   0.5427702494E+01   0.1173010496E-03   0.1173010496E-03  -0.1619264951E-13   0.2150821172E-13  -0.5364090312E-14
   0.2360000000E+01   0.1104642952E-14  -0.1186353493E-14   0.5427702495E+01   0.1173010498E-03   0.1173010498E-03   0.6392719222E-15   0.2785339491E-14  -0.1929209840E-15
   0.2360000000E+01   0.9214055450E+00   0.1890036759E-14   0.5427702494E+01   0.1173010498E-03   0.1173010498E-03   0.1144964857E-14   0.1504729745E-14  -0.8075250931E-15
   0.2360000000E+01  -0.1992710031E-14   0.9214055450E+00   0.5427702494E+01   0.1173010498E-03   0.1173010498E-03  -0.2823712313E-14   0.1022242395E-14   0.7423631469E-15
   0.2360000000E+01   0.9214055450E+00   0.9214055450E+00   0.5427702494E+01   0.1173010499E-03   0.1173010499E-03  -0.2453367907E-14   0.2371587098E-14   0.1277590378E-15
     1     2     3     4     5     6     7     8
     2     9    10     3     6    11    12     7
 VARIABLES = X,Y,Z,S11,S22,S33,S12,S13,S23
 ZONE, T="0.2000D+01" F=FEPOINT, I=   12 J=    2 ET=BRICK
   0.0000000000E+00   0.0000000000E+00   0.0000000000E+00   0.1108877250E+02   0.6059266871E-09   0.6059259505E-09   0.1058062276E-14   0.8011909879E-15   0.8406370896E-15
   0.1360000000E+01   0.6543882300E-16   0.5090711736E-16   0.1108877250E+02   0.6062344164E-09   0.6062372938E-09   0.1974288340E-14   0.9450990787E-15   0.1097798543E-14
   0.1360000000E+01   0.8590704173E+00   0.1028544892E-15   0.1108877250E+02   0.6054819525E-09   0.6054790751E-09   0.1050587011E-14  -0.1789725571E-14   0.2073474611E-15
   0.0000000000E+00   0.8590704173E+00   0.0000000000E+00   0.1108877250E+02   0.6063521112E-09   0.6063484972E-09  -0.9413704999E-15   0.1560883921E-14  -0.4757832401E-15
   0.0000000000E+00   0.9809997139E-16   0.8590704173E+00   0.1108877250E+02   0.6061557217E-09   0.6061584706E-09   0.9748686761E-15   0.3766215858E-15   0.1271384716E-15
   0.1360000000E+01   0.1415897360E-15   0.8590704173E+00   0.1108877250E+02   0.6058632219E-09   0.6058706380E-09  -0.2082470647E-14   0.8521877432E-15  -0.5367195971E-15
   0.1360000000E+01   0.8590704173E+00   0.8590704173E+00   0.1108877250E+02   0.6055762526E-09   0.6055779138E-09  -0.1149857401E-14  -0.2666118266E-14  -0.1427170679E-14
   0.0000000000E+00   0.8590704173E+00   0.8590704173E+00   0.1108877250E+02   0.6055473820E-09   0.6055472535E-09  -0.9413214425E-15  -0.6589028710E-15  -0.1189281858E-14
   0.2720000000E+01   0.8067155124E-16   0.6919879994E-16   0.1108877250E+02   0.6062031286E-09   0.6062071877E-09   0.3616048379E-16   0.1375107207E-15   0.6743108325E-15
   0.2720000000E+01   0.8590704173E+00   0.1569398995E-15   0.1108877250E+02   0.6051993338E-09   0.6051947607E-09   0.1881906018E-15   0.5684350609E-15   0.1703275880E-14
   0.2720000000E+01   0.7161649649E-16   0.8590704173E+00   0.1108877250E+02   0.6061649072E-09   0.6061679131E-09  -0.1333810212E-14   0.3762574518E-15  -0.1028996760E-14
   0.2720000000E+01   0.8590704173E+00   0.8590704173E+00   0.1108877250E+02   0.6059454192E-09   0.6059397929E-09   0.2447606397E-14   0.1035436462E-14  -0.3171281465E-19
     1     2     3     4     5     6     7     8
     2     9    10     3     6    11    12     7
 VARIABLES = X,Y,Z,S11,S22,S33,S12,S13,S23
 ZONE, T="0.3000D+01" F=FEPOINT, I=   12 J=    2 ET=BRICK
   0.0000000000E+00   0.0000000000E+00   0.0000000000E+00   0.1712119947E+02   0.2703823146E-03   0.2703823146E-03  -0.1112675992E-13   0.1610529594E-13   0.3802387673E-14
   0.1540000000E+01  -0.6312675445E-15   0.8674253822E-15   0.1712119947E+02   0.2703823147E-03   0.2703823147E-03  -0.4120046891E-14   0.1128895242E-13  -0.1510561723E-14
   0.1540000000E+01   0.8081062682E+00  -0.9736221650E-15   0.1712119947E+02   0.2703823145E-03   0.2703823145E-03  -0.4557463182E-14  -0.1097944428E-13  -0.1191068727E-14
   0.0000000000E+00   0.8081062682E+00   0.0000000000E+00   0.1712119947E+02   0.2703823147E-03   0.2703823147E-03  -0.1107145674E-13  -0.1780999525E-13   0.2234351812E-14
   0.0000000000E+00   0.4723101975E-15   0.8081062682E+00   0.1712119947E+02   0.2703823148E-03   0.2703823148E-03   0.9419420820E-14   0.1415849218E-13   0.3355515732E-14
   0.1540000000E+01   0.1022142649E-14   0.8081062682E+00   0.1712119947E+02   0.2703823143E-03   0.2703823143E-03   0.3786342478E-14   0.1230447557E-13   0.5743426596E-15
   0.1540000000E+01   0.8081062682E+00   0.8081062682E+00   0.1712119946E+02   0.2703823147E-03   0.2703823147E-03   0.5835152245E-14  -0.9877665585E-14   0.8938356548E-15
   0.0000000000E+00   0.8081062682E+00   0.8081062682E+00   0.1712119947E+02   0.2703823140E-03   0.2703823140E-03   0.1362623769E-13  -0.1256165356E-13   0.1787479871E-14
   0.3080000000E+01  -0.8866491311E-15   0.1005577318E-14   0.1712119947E+02   0.2703823147E-03   0.2703823147E-03  -0.2476417699E-14  -0.6783229040E-15  -0.1442122836E-16
   0.3080000000E+01   0.8081062682E+00  -0.1198317575E-14   0.1712119947E+02   0.2703823145E-03   0.2703823145E-03  -0.3406553471E-14  -0.5745563283E-15   0.1026975975E-14
   0.3080000000E+01   0.1315447408E-14   0.8081062682E+00   0.1712119947E+02   0.2703823141E-03   0.2703823141E-03   0.3515899155E-14   0.3299527138E-14  -0.3711309996E-15
   0.3080000000E+01   0.8081062682E+00   0.8081062682E+00   0.1712119946E+02   0.2703823146E-03   0.2703823146E-03   0.3406701816E-14  -0.3619340633E-14   0.6702662034E-15
     1     2     3     4     5     6     7     8
     2     9    10     3     6    11    12     7
 VARIABLES = X,Y,Z,S11,S22,S33,S12,S13,S23
 ZONE, T="0.4000D+01" F=FEPOINT, I=   12 J=    2 ET=BRICK
   0.0000000000E+00   0.0000000000E+00   0.0000000000E+00   0.2360208094E+02   0.9397301274E-04   0.9397301274E-04  -0.1209332235E-13   0.2018277077E-13   0.3190671105E-14
   0.1720000000E+01  -0.6204612269E-15   0.9994621118E-15   0.2360208094E+02   0.9397301246E-04   0.9397301246E-04  -0.1104513244E-13   0.1094004318E-13  -0.7969932711E-15
   0.1720000000E+01   0.7654632591E+00  -0.9949791418E-15   0.2360208094E+02   0.9397301238E-04   0.9397301238E-04  -0.1121836081E-13  -0.8594431876E-14  -0.3923304894E-15
   0.0000000000E+00   0.7654632591E+00   0.0000000000E+00   0.2360208094E+02   0.9397301243E-04   0.9397301244E-04  -0.1460405581E-13  -0.1997253990E-13   0.2113705406E-14
   0.0000000000E+00   0.4189961276E-15   0.7654632591E+00   0.2360208094E+02   0.9397301251E-04   0.9397301251E-04   0.1606651813E-13   0.2232181129E-13   0.4670234559E-14
   0.1720000000E+01   0.1269328779E-14   0.7654632591E+00   0.2360208094E+02   0.9397301245E-04   0.9397301245E-04   0.1067160874E-13   0.1234813828E-13  -0.8272107277E-15
   0.1720000000E+01   0.7654632591E+00   0.7654632591E+00   0.2360208094E+02   0.9397301237E-04   0.9397301237E-04   0.1055314455E-13  -0.9099496307E-14  -0.4225479460E-15
   0.0000000000E+00   0.7654632591E+00   0.7654632591E+00   0.2360208094E+02   0.9397301322E-04   0.9397301322E-04   0.1852220543E-13  -0.2196516302E-13   0.3593268860E-14
   0.3440000000E+01  -0.8956889625E-15   0.1278703682E-14   0.2360208094E+02   0.9397301243E-04   0.9397301243E-04  -0.3233142627E-14   0.1696296512E-14   0.6177371362E-15
   0.3440000000E+01   0.7654632591E+00  -0.1300977898E-14   0.2360208094E+02   0.9397301324E-04   0.9397301325E-04  -0.1068865918E-14  -0.2286890265E-14  -0.4106168699E-15
   0.3440000000E+01   0.1765113892E-14   0.7654632591E+00   0.2360208094E+02   0.9397301263E-04   0.9397301263E-04   0.6966539990E-14   0.2373446189E-14   0.3944115741E-15
   0.3440000000E+01   0.7654632591E+00   0.7654632591E+00   0.2360208093E+02   0.9397301244E-04   0.9397301245E-04   0.4273924321E-14  -0.1304396009E-14  -0.6339424319E-15
     1     2     3     4     5     6     7     8
     2     9    10     3     6    11    12     7
 VARIABLES = X,Y,Z,S11,S22,S33,S12,S13,S23
 ZONE, T="0.5000D+01" F=FEPOINT, I=   12 J=    2 ET=BRICK
   0.0000000000E+00   0.0000000000E+00   0.0000000000E+00   0.3057840217E+02   0.3689750359E-04   0.3689750359E-04  -0.7585498865E-14   0.1322954337E-13   0.3324151995E-14
   0.1900000000E+01  -0.3637914406E-15   0.5852474090E-15   0.3057840217E+02   0.3689750308E-04   0.3689750308E-04  -0.7034663235E-14   0.4265223794E-14  -0.2601302632E-15
   0.1900000000E+01   0.7291274515E+00  -0.5835468361E-15   0.3057840217E+02   0.3689750279E-04   0.3689750279E-04  -0.7370504408E-14  -0.6469218179E-14  -0.1228288552E-14
   0.0000000000E+00   0.7291274515E+00   0.0000000000E+00   0.3057840217E+02   0.3689750310E-04   0.3689750310E-04  -0.8119350993E-14  -0.1328537672E-13   0.1608081966E-14
   0.0000000000E+00   0.4589690916E-15   0.7291274515E+00   0.3057840217E+02   0.3689750260E-04   0.3689750261E-04   0.6594839229E-14   0.1073902628E-13   0.2118199829E-14
   0.1900000000E+01   0.7690820592E-15   0.7291274515E+00   0.3057840217E+02   0.3689750259E-04   0.3689750259E-04   0.5173501275E-14   0.4397031916E-14   0.1640663905E-15
   0.1900000000E+01   0.7291274515E+00   0.7291274515E+00   0.3057840216E+02   0.3689750275E-04   0.3689750276E-04   0.7090523624E-14  -0.6286022227E-14  -0.8040918980E-15
   0.0000000000E+00   0.7291274515E+00   0.7291274515E+00   0.3057840217E+02   0.3689750209E-04   0.3689750209E-04   0.7857978479E-14  -0.9429161303E-14   0.4021298004E-15
   0.3800000000E+01  -0.5750352630E-15   0.7076701628E-15   0.3057840217E+02   0.3689750253E-04   0.3689750253E-04  -0.3267153574E-14   0.1271607766E-15   0.7514335055E-15
   0.3800000000E+01   0.7291274515E+00  -0.6855658088E-15   0.3057840217E+02   0.3689750267E-04   0.3689750267E-04  -0.3404983791E-14   0.3462794655E-15   0.7644239196E-15
   0.3800000000E+01   0.9219440968E-15   0.7291274515E+00   0.3057840217E+02   0.3689750277E-04   0.3689750277E-04   0.2143539478E-14   0.2881294107E-14  -0.4152210904E-15
   0.3800000000E+01   0.7291274515E+00   0.7291274515E+00   0.3057840216E+02   0.3689750268E-04   0.3689750268E-04   0.4714444927E-14  -0.3143544044E-14  -0.4022306762E-15
     1     2     3     4     5     6     7     8
     2     9    10     3     6    11    12     7
 VARIABLES = X,Y,Z,S11,S22,S33,S12,S13,S23
 ZONE, T="0.6000D+01" F=FEPOINT, I=   12 J=    2 ET=BRICK
   0.0000000000E+00   0.0000000000E+00   0.0000000000E+00   0.3039016692E+02   0.1882721502E+00   0.3689748084E-04   0.2391755381E+01   0.2706066982E-06   0.2129721330E-07
   0.1894142933E+01   0.1490722917E+00   0.9588299291E-08   0.3039011301E+02   0.1882168043E+00  -0.1840673902E-04   0.2391755214E+01   0.8689147895E-14   0.1310628923E-14
   0.1836936254E+01   0.8759520670E+00   0.9588298408E-08   0.3039011301E+02   0.1882168042E+00  -0.1840673872E-04   0.2391755214E+01   0.5528808867E-15  -0.1183316577E-14
  -0.5720668052E-01   0.7268797949E+00   0.0000000000E+00   0.3039016700E+02   0.1882720632E+00   0.3689751752E-04   0.2391754832E+01   0.2706066801E-06   0.2129720828E-07
  -0.3601029989E-16   0.4575542431E-15   0.7291274515E+00   0.3039016692E+02   0.1882721501E+00   0.3689748057E-04   0.2391755381E+01  -0.2706066824E-06  -0.2129720700E-07
   0.1894142933E+01   0.1490722917E+00   0.7291274419E+00   0.3039011301E+02   0.1882168042E+00  -0.1840673892E-04   0.2391755214E+01   0.8458462852E-14  -0.6196157006E-15
   0.1836936254E+01   0.8759520670E+00   0.7291274419E+00   0.3039011301E+02   0.1882168042E+00  -0.1840673875E-04   0.2391755213E+01   0.6022830749E-15   0.6602098368E-15
  -0.5720668052E-01   0.7268797949E+00   0.7291274515E+00   0.3039016700E+02   0.1882720632E+00   0.3689751832E-04   0.2391754832E+01  -0.2706066949E-06  -0.2129720782E-07
   0.3788285868E+01   0.2981445638E+00   0.7076701628E-15   0.3039016700E+02   0.1882720632E+00   0.3689751823E-04   0.2391754832E+01  -0.2706066845E-06  -0.2129720668E-07
   0.3731079188E+01   0.1025024359E+01  -0.6855658088E-15   0.3039016691E+02   0.1882721501E+00   0.3689748121E-04   0.2391755381E+01  -0.2706066921E-06  -0.2129720835E-07
   0.3788285868E+01   0.2981445638E+00   0.7291274515E+00   0.3039016700E+02   0.1882720632E+00   0.3689751776E-04   0.2391754832E+01   0.2706066958E-06   0.2129720706E-07
   0.3731079188E+01   0.1025024359E+01   0.7291274515E+00   0.3039016691E+02   0.1882721501E+00   0.3689748059E-04   0.2391755381E+01   0.2706066831E-06   0.2129720874E-07
     1     2     3     4     5     6     7     8
     2     9    10     3     6    11    12     7
 VARIABLES = X,Y,Z,S11,S22,S33,S12,S13,S23
 ZONE, T="0.7000D+01" F=FEPOINT, I=   12 J=    2 ET=BRICK
   0.0000000000E+00   0.0000000000E+00   0.0000000000E+00   0.2983009623E+02   0.7483428430E+00   0.3689749940E-04   0.4724617524E+01   0.2733621959E-06   0.4329632272E-07
   0.1876607846E+01   0.2972254931E+00   0.9776439445E-08   0.2983004232E+02   0.7482874755E+00  -0.1842324249E-04   0.4724617476E+01   0.1141855722E-13   0.1570833981E-14
   0.1762547186E+01   0.1017376157E+01   0.9776438602E-08   0.2983004232E+02   0.7482874755E+00  -0.1842324228E-04   0.4724617475E+01  -0.3685836877E-14  -0.1328688570E-14
  -0.1140606628E+00   0.7201506827E+00   0.0000000000E+00   0.2983009639E+02   0.7483426744E+00   0.3689749902E-04   0.4724617005E+01   0.2733621794E-06   0.4329631649E-07
  -0.7179858432E-16   0.4533184205E-15   0.7291274515E+00   0.2983009622E+02   0.7483428430E+00   0.3689750005E-04   0.4724617524E+01  -0.2733621827E-06  -0.4329631552E-07
   0.1876607846E+01   0.2972254931E+00   0.7291274418E+00   0.2983004232E+02   0.7482874755E+00  -0.1842324195E-04   0.4724617475E+01   0.1132376717E-13  -0.2674498654E-15
   0.1762547186E+01   0.1017376157E+01   0.7291274418E+00   0.2983004232E+02   0.7482874754E+00  -0.1842324242E-04   0.4724617475E+01  -0.3797866298E-14   0.6189240243E-15
  -0.1140606628E+00   0.7201506827E+00   0.7291274515E+00   0.2983009639E+02   0.7483426743E+00   0.3689749899E-04   0.4724617005E+01  -0.2733621935E-06  -0.4329631706E-07
   0.3753215694E+01   0.5944509672E+00   0.7076701628E-15   0.2983009639E+02   0.7483426745E+00   0.3689749940E-04   0.4724617005E+01  -0.2733621819E-06  -0.4329631501E-07
   0.3639155031E+01   0.1314601650E+01  -0.6855658088E-15   0.2983009622E+02   0.7483428429E+00   0.3689749950E-04   0.4724617524E+01  -0.2733621937E-06  -0.4329631746E-07
   0.3753215694E+01   0.5944509672E+00   0.7291274515E+00   0.2983009639E+02   0.7483426744E+00   0.3689749981E-04   0.4724617005E+01   0.2733621969E-06   0.4329631666E-07
   0.3639155031E+01   0.1314601650E+01   0.7291274515E+00   0.2983009622E+02   0.7483428428E+00   0.3689749925E-04   0.4724617523E+01   0.2733621793E-06   0.4329631710E-07
     1     2     3     4     5     6     7     8
     2     9    10     3     6    11    12     7
 VARIABLES = X,Y,Z,S11,S22,S33,S12,S13,S23
 ZONE, T="0.8000D+01" F=FEPOINT, I=   12 J=    2 ET=BRICK
   0.0000000000E+00   0.0000000000E+00   0.0000000000E+00   0.2891198089E+02   0.1666458179E+01   0.3689749915E-04   0.6941143909E+01   0.2691209986E-06   0.6461023978E-07
   0.1847502847E+01   0.4435462007E+00   0.9776384135E-08   0.2891192699E+02   0.1666402813E+01  -0.1842323427E-04   0.6941143976E+01   0.1077679123E-13   0.3927992870E-14
   0.1677291428E+01   0.1152527784E+01   0.9776383372E-08   0.2891192698E+02   0.1666402813E+01  -0.1842323417E-04   0.6941143975E+01  -0.8003023188E-14  -0.2970810484E-14
  -0.1702114232E+00   0.7089816020E+00   0.0000000000E+00   0.2891198113E+02   0.1666457931E+01   0.3689749959E-04   0.6941143422E+01   0.2691209848E-06   0.6461023282E-07
  -0.1071442066E-15   0.4462877391E-15   0.7291274515E+00   0.2891198089E+02   0.1666458179E+01   0.3689750021E-04   0.6941143908E+01  -0.2691209850E-06  -0.6461023132E-07
   0.1847502847E+01   0.4435462007E+00   0.7291274418E+00   0.2891192698E+02   0.1666402813E+01  -0.1842323446E-04   0.6941143975E+01   0.1114815279E-13   0.7481688250E-15
   0.1677291428E+01   0.1152527784E+01   0.7291274418E+00   0.2891192698E+02   0.1666402813E+01  -0.1842323412E-04   0.6941143974E+01  -0.7945792456E-14  -0.2377739399E-14
  -0.1702114232E+00   0.7089816020E+00   0.7291274515E+00   0.2891198113E+02   0.1666457931E+01   0.3689749870E-04   0.6941143422E+01  -0.2691209988E-06  -0.6461023442E-07
   0.3695005698E+01   0.8870923827E+00   0.7076701628E-15   0.2891198114E+02   0.1666457932E+01   0.3689749967E-04   0.6941143423E+01  -0.2691209845E-06  -0.6461023016E-07
   0.3524794274E+01   0.1596073985E+01  -0.6855658088E-15   0.2891198089E+02   0.1666458179E+01   0.3689749851E-04   0.6941143908E+01  -0.2691209982E-06  -0.6461023460E-07
   0.3695005698E+01   0.8870923827E+00   0.7291274515E+00   0.2891198113E+02   0.1666457931E+01   0.3689750006E-04   0.6941143422E+01   0.2691209999E-06   0.6461023441E-07
   0.3524794274E+01   0.1596073985E+01   0.7291274515E+00   0.2891198088E+02   0.1666458179E+01   0.3689749900E-04   0.6941143907E+01   0.2691209855E-06   0.6461023366E-07
     1     2     3     4     5     6     7     8
     2     9    10     3     6    11    12     7
 VARIABLES = X,Y,Z,S11,S22,S33,S12,S13,S23
 ZONE, T="0.9000D+01" F=FEPOINT, I=   12 J=    2 ET=BRICK
   0.0000000000E+00   0.0000000000E+00   0.0000000000E+00   0.2765842796E+02   0.2920011111E+01   0.3689749955E-04   0.8986756294E+01   0.2632221226E-06   0.8552605660E-07
   0.1807007378E+01   0.5871322985E+00   0.9776383956E-08   0.2765837404E+02   0.2919955765E+01  -0.1842323396E-04   0.8986756475E+01   0.7597946500E-14   0.4643330264E-14
   0.1581694610E+01   0.1280573694E+01   0.9776383268E-08   0.2765837403E+02   0.2919955764E+01  -0.1842323448E-04   0.8986756474E+01   0.4957112957E-15  -0.1198401240E-14
  -0.2253127736E+00   0.6934414140E+00   0.0000000000E+00   0.2765842828E+02   0.2920010790E+01   0.3689749924E-04   0.8986755852E+01   0.2632221115E-06   0.8552604927E-07
  -0.1418292492E-15   0.4365055454E-15   0.7291274515E+00   0.2765842796E+02   0.2920011111E+01   0.3689749863E-04   0.8986756293E+01  -0.2632221085E-06  -0.8552604673E-07
   0.1807007378E+01   0.5871322985E+00   0.7291274418E+00   0.2765837403E+02   0.2919955764E+01  -0.1842323421E-04   0.8986756474E+01   0.8509437686E-14   0.6044137273E-15
   0.1581694610E+01   0.1280573694E+01   0.7291274418E+00   0.2765837403E+02   0.2919955764E+01  -0.1842323450E-04   0.8986756472E+01   0.7980217840E-15  -0.1500699669E-14
  -0.2253127736E+00   0.6934414140E+00   0.7291274515E+00   0.2765842827E+02   0.2920010790E+01   0.3689750025E-04   0.8986755851E+01  -0.2632221234E-06  -0.8552605135E-07
   0.3614014762E+01   0.1174264579E+01   0.7076701628E-15   0.2765842828E+02   0.2920010791E+01   0.3689749948E-04   0.8986755853E+01  -0.2632221084E-06  -0.8552604586E-07
   0.3388701988E+01   0.1867705993E+01  -0.6855658088E-15   0.2765842795E+02   0.2920011111E+01   0.3689749918E-04   0.8986756293E+01  -0.2632221237E-06  -0.8552605177E-07
   0.3614014762E+01   0.1174264579E+01   0.7291274515E+00   0.2765842827E+02   0.2920010790E+01   0.3689749963E-04   0.8986755852E+01   0.2632221240E-06   0.8552605101E-07
   0.3388701988E+01   0.1867705993E+01   0.7291274515E+00   0.2765842795E+02   0.2920011111E+01   0.3689749904E-04   0.8986756292E+01   0.2632221112E-06   0.8552604986E-07
     1     2     3     4     5     6     7     8
     2     9    10     3     6    11    12     7
 VARIABLES = X,Y,Z,S11,S22,S33,S12,S13,S23
 ZONE, T="0.1000D+02" F=FEPOINT, I=   12 J=    2 ET=BRICK
   0.0000000000E+00   0.0000000000E+00   0.0000000000E+00   0.2610030406E+02   0.4478135006E+01   0.3689749940E-04   0.1081108491E+02   0.2557004027E-06   0.1059145793E-06
   0.1755371108E+01   0.7270985304E+00   0.9776384075E-08   0.2610025010E+02   0.4478079696E+01  -0.1842323415E-04   0.1081108520E+02   0.8587928792E-14   0.3939258435E-14
   0.1476346120E+01   0.1400724442E+01   0.9776383072E-08   0.2610025010E+02   0.4478079696E+01  -0.1842323380E-04   0.1081108520E+02   0.3739180535E-15  -0.2015715491E-14
  -0.2790249958E+00   0.6736259291E+00   0.0000000000E+00   0.2610030445E+02   0.4478134620E+01   0.3689749918E-04   0.1081108453E+02   0.2557003837E-06   0.1059145678E-06
  -0.1756398673E-15   0.4240321498E-15   0.7291274515E+00   0.2610030406E+02   0.4478135005E+01   0.3689749932E-04   0.1081108491E+02  -0.2557003878E-06  -0.1059145677E-06
   0.1755371108E+01   0.7270985304E+00   0.7291274418E+00   0.2610025010E+02   0.4478079696E+01  -0.1842323408E-04   0.1081108520E+02   0.8632082048E-14   0.2836713738E-14
   0.1476346120E+01   0.1400724442E+01   0.7291274418E+00   0.2610025010E+02   0.4478079695E+01  -0.1842323407E-04   0.1081108520E+02  -0.4827573260E-15   0.5588964799E-15
  -0.2790249958E+00   0.6736259291E+00   0.7291274515E+00   0.2610030444E+02   0.4478134619E+01   0.3689749946E-04   0.1081108453E+02  -0.2557003996E-06  -0.1059145722E-06
   0.3510742224E+01   0.1454197043E+01   0.7076701628E-15   0.2610030445E+02   0.4478134620E+01   0.3689749910E-04   0.1081108453E+02  -0.2557003885E-06  -0.1059145675E-06
   0.3231717228E+01   0.2127822972E+01  -0.6855658088E-15   0.2610030406E+02   0.4478135005E+01   0.3689749930E-04   0.1081108491E+02  -0.2557003983E-06  -0.1059145725E-06
   0.3510742224E+01   0.1454197043E+01   0.7291274515E+00   0.2610030444E+02   0.4478134620E+01   0.3689749932E-04   0.1081108453E+02   0.2557004038E-06   0.1059145732E-06
   0.3231717228E+01   0.2127822972E+01   0.7291274515E+00   0.2610030406E+02   0.4478135005E+01   0.3689749848E-04   0.1081108491E+02   0.2557003850E-06   0.1059145685E-06
     1     2     3     4     5     6     7     8
     2     9    10     3     6    11    12     7
 VARIABLES = X,Y,Z,S11,S22,S33,S12,S13,S23
 ZONE, T="0.1100D+02" F=FEPOINT, I=   12 J=    2 ET=BRICK
   0.0000000000E+00   0.0000000000E+00   0.0000000000E+00   0.2427597539E+02   0.6302463682E+01   0.3689749899E-04   0.1236920874E+02   0.2466022010E-06   0.1256501021E-06
   0.1692912392E+01   0.8625819581E+00   0.9776384052E-08   0.2427592137E+02   0.6302408425E+01  -0.1842323431E-04   0.1236920914E+02   0.9615485405E-14   0.3837225315E-14
   0.1361895464E+01   0.1512239257E+01   0.9776383051E-08   0.2427592137E+02   0.6302408425E+01  -0.1842323393E-04   0.1236920913E+02  -0.3661926903E-14  -0.3798676432E-14
  -0.3310169361E+00   0.6496573163E+00   0.0000000000E+00   0.2427597583E+02   0.6302463240E+01   0.3689749938E-04   0.1236920842E+02   0.2466021831E-06   0.1256500892E-06
  -0.2083676073E-15   0.4089444550E-15   0.7291274515E+00   0.2427597539E+02   0.6302463681E+01   0.3689749895E-04   0.1236920874E+02  -0.2466021876E-06  -0.1256500896E-06
   0.1692912392E+01   0.8625819581E+00   0.7291274418E+00   0.2427592137E+02   0.6302408425E+01  -0.1842323402E-04   0.1236920913E+02   0.9755026011E-14   0.2723831308E-14
   0.1361895464E+01   0.1512239257E+01   0.7291274418E+00   0.2427592137E+02   0.6302408424E+01  -0.1842323410E-04   0.1236920913E+02  -0.4708687919E-14  -0.1316796590E-14
  -0.3310169361E+00   0.6496573163E+00   0.7291274515E+00   0.2427597582E+02   0.6302463239E+01   0.3689749958E-04   0.1236920842E+02  -0.2466021989E-06  -0.1256500950E-06
   0.3385824792E+01   0.1725163899E+01   0.7076701628E-15   0.2427597583E+02   0.6302463240E+01   0.3689749925E-04   0.1236920842E+02  -0.2466021868E-06  -0.1256500891E-06
   0.3054807856E+01   0.2374821215E+01  -0.6855658088E-15   0.2427597538E+02   0.6302463681E+01   0.3689749865E-04   0.1236920874E+02  -0.2466021997E-06  -0.1256500944E-06
   0.3385824792E+01   0.1725163899E+01   0.7291274515E+00   0.2427597583E+02   0.6302463239E+01   0.3689749960E-04   0.1236920842E+02   0.2466022040E-06   0.1256500964E-06
   0.3054807856E+01   0.2374821215E+01   0.7291274515E+00   0.2427597538E+02   0.6302463680E+01   0.3689749903E-04   0.1236920874E+02   0.2466021823E-06   0.1256500907E-06
     1     2     3     4     5     6     7     8
     2     9    10     3     6    11    12     7
 VARIABLES = X,Y,Z,S11,S22,S33,S12,S13,S23
 ZONE, T="0.1200D+02" F=FEPOINT, I=   12 J=    2 ET=BRICK
   0.0000000000E+00   0.0000000000E+00   0.0000000000E+00   0.2223036296E+02   0.8348076112E+01   0.3689749950E-04   0.1362276160E+02   0.2359836185E-06   0.1446109524E-06
   0.1620016307E+01   0.9927472812E+00   0.9776384185E-08   0.2223030888E+02   0.8348020924E+01  -0.1842323411E-04   0.1362276209E+02   0.8489600186E-14   0.6449541275E-14
   0.1239048270E+01   0.1614430615E+01   0.9776383103E-08   0.2223030887E+02   0.8348020923E+01  -0.1842323406E-04   0.1362276209E+02  -0.2747772565E-14  -0.5230927517E-14
  -0.3809680469E+00   0.6216833501E+00   0.0000000000E+00   0.2223036344E+02   0.8348075625E+01   0.3689749900E-04   0.1362276135E+02   0.2359835995E-06   0.1446109370E-06
  -0.2398106916E-15   0.3913354817E-15   0.7291274515E+00   0.2223036296E+02   0.8348076111E+01   0.3689749959E-04   0.1362276160E+02  -0.2359836030E-06  -0.1446109370E-06
   0.1620016307E+01   0.9927472812E+00   0.7291274418E+00   0.2223030887E+02   0.8348020923E+01  -0.1842323455E-04   0.1362276209E+02   0.9040346615E-14   0.4821350587E-14
   0.1239048270E+01   0.1614430615E+01   0.7291274418E+00   0.2223030887E+02   0.8348020922E+01  -0.1842323437E-04   0.1362276208E+02  -0.3661752723E-14  -0.3368003677E-14
  -0.3809680469E+00   0.6216833501E+00   0.7291274515E+00   0.2223036344E+02   0.8348075624E+01   0.3689749902E-04   0.1362276135E+02  -0.2359836181E-06  -0.1446109456E-06
   0.3240032625E+01   0.1985494546E+01   0.7076701628E-15   0.2223036344E+02   0.8348075625E+01   0.3689749859E-04   0.1362276135E+02  -0.2359836046E-06  -0.1446109383E-06
   0.2859064578E+01   0.2607177896E+01  -0.6855658088E-15   0.2223036295E+02   0.8348076110E+01   0.3689749874E-04   0.1362276160E+02  -0.2359836151E-06  -0.1446109427E-06
   0.3240032625E+01   0.1985494546E+01   0.7291274515E+00   0.2223036344E+02   0.8348075624E+01   0.3689749991E-04   0.1362276135E+02   0.2359836196E-06   0.1446109451E-06
   0.2859064578E+01   0.2607177896E+01   0.7291274515E+00   0.2223036295E+02   0.8348076109E+01   0.3689749919E-04   0.1362276160E+02   0.2359836023E-06   0.1446109409E-06
     1     2     3     4     5     6     7     8
     2     9    10     3     6    11    12     7
 VARIABLES = X,Y,Z,S11,S22,S33,S12,S13,S23
 ZONE, T="0.1300D+02" F=FEPOINT, I=   12 J=    2 ET=BRICK
   0.0000000000E+00   0.0000000000E+00   0.0000000000E+00   0.2001383654E+02   0.1056460253E+02   0.3689749891E-04   0.1454087686E+02   0.2239101125E-06   0.1626802244E-06
   0.1537132284E+01   0.1116791987E+01   0.9776384065E-08   0.2001378238E+02   0.1056454742E+02  -0.1842323399E-04   0.1454087742E+02   0.1059192485E-13   0.8636202008E-14
   0.1108561932E+01   0.1706668471E+01   0.9776383094E-08   0.2001378237E+02   0.1056454742E+02  -0.1842323419E-04   0.1454087742E+02  -0.6382587080E-14  -0.6234474458E-14
  -0.4285703630E+00   0.5898764994E+00   0.0000000000E+00   0.2001383706E+02   0.1056460201E+02   0.3689749967E-04   0.1454087669E+02   0.2239100974E-06   0.1626802095E-06
  -0.2697752633E-15   0.3713137950E-15   0.7291274515E+00   0.2001383654E+02   0.1056460253E+02   0.3689749907E-04   0.1454087686E+02  -0.2239100997E-06  -0.1626802089E-06
   0.1537132284E+01   0.1116791987E+01   0.7291274418E+00   0.2001378237E+02   0.1056454742E+02  -0.1842323392E-04   0.1454087742E+02   0.1126493867E-13   0.7060931348E-14
   0.1108561932E+01   0.1706668471E+01   0.7291274418E+00   0.2001378237E+02   0.1056454742E+02  -0.1842323445E-04   0.1454087742E+02  -0.7443384093E-14  -0.4444088177E-14
  -0.4285703630E+00   0.5898764994E+00   0.7291274515E+00   0.2001383705E+02   0.1056460201E+02   0.3689749900E-04   0.1454087669E+02  -0.2239101114E-06  -0.1626802167E-06
   0.3074264579E+01   0.2233583959E+01   0.7076701628E-15   0.2001383706E+02   0.1056460201E+02   0.3689749923E-04   0.1454087669E+02  -0.2239100988E-06  -0.1626802077E-06
   0.2645694216E+01   0.2823460458E+01  -0.6855658088E-15   0.2001383654E+02   0.1056460253E+02   0.3689749873E-04   0.1454087686E+02  -0.2239101116E-06  -0.1626802187E-06
   0.3074264579E+01   0.2233583959E+01   0.7291274515E+00   0.2001383706E+02   0.1056460201E+02   0.3689749919E-04   0.1454087669E+02   0.2239101165E-06   0.1626802199E-06
   0.2645694216E+01   0.2823460458E+01   0.7291274515E+00   0.2001383653E+02   0.1056460253E+02   0.3689749887E-04   0.1454087686E+02   0.2239100968E-06   0.1626802085E-06
     1     2     3     4     5     6     7     8
     2     9    10     3     6    11    12     7
 VARIABLES = X,Y,Z,S11,S22,S33,S12,S13,S23
 ZONE, T="0.1400D+02" F=FEPOINT, I=   12 J=    2 ET=BRICK
   0.0000000000E+00   0.0000000000E+00   0.0000000000E+00   0.1768097437E+02   0.1289746470E+02   0.3689749908E-04   0.1510094747E+02   0.2104561258E-06   0.1797465178E-06
   0.1444771328E+01   0.1233951299E+01   0.9776383914E-08   0.1768092011E+02   0.1289740969E+02  -0.1842323404E-04   0.1510094810E+02   0.8021679051E-14   0.5235314681E-14