 VARIABLES = X,Y,Z,DU1,DU2,DU3,U1,U2,U3,S11,S22,S33,S12,S13,S23
 ZONE, T="0.1000D+01" F=FEPOINT, I=   12 J=    2 ET=BRICK
   0.0000000000E+00   0.0000000000E+00   0.0000000000E+00   0.0000000000E+00   0.0000000000E+00   0.0000000000E+00   0.0000000000E+00   0.0000000000E+00   0.0000000000E+00   0.9999999952E+01  -0.6650245610E-07  -0.6405856590E-07   0.3376886774E-15  -0.7516336081E-09  -0.6569765046E-09
   0.2000000000E+01   0.0000000000E+00  -0.1145917951E-09   0.1000000000E+00   0.0000000000E+00  -0.1145917951E-10   0.0000000000E+00   0.0000000000E+00   0.0000000000E+00   0.1000000055E+02   0.5358208997E-06   0.5376651063E-06  -0.3565286436E-09   0.2961211855E-09   0.1402735999E-08
   0.2000000000E+01   0.5010000001E+00   0.3059484833E-09   0.1000000000E+00  -0.4989999999E-01   0.3059484833E-10   0.0000000000E+00   0.0000000000E+00   0.0000000000E+00   0.9999999320E+01  -0.6933216603E-06  -0.6965679879E-06   0.1933741617E-09  -0.2518110109E-09   0.8617199229E-09
   0.0000000000E+00   0.5009999997E+00  -0.1969614527E-09   0.0000000000E+00  -0.4990000003E-01  -0.1969614527E-10   0.0000000000E+00   0.0000000000E+00   0.0000000000E+00   0.9999999686E+01  -0.3300836332E-06  -0.3275445357E-06   0.1344778267E-08   0.2581716114E-08   0.9412051608E-09
   0.0000000000E+00   0.0000000000E+00   0.5010000001E+00   0.0000000000E+00   0.0000000000E+00  -0.4989999999E-01   0.0000000000E+00   0.0000000000E+00   0.0000000000E+00   0.1000000059E+02   0.5809956797E-06   0.5802432726E-06  -0.1300721640E-15   0.9375153395E-09  -0.6093719390E-09
   0.2000000000E+01   0.0000000000E+00   0.5010000002E+00   0.1000000000E+00   0.0000000000E+00  -0.4989999998E-01   0.0000000000E+00   0.0000000000E+00   0.0000000000E+00   0.1000000050E+02   0.4806365583E-06   0.4835625769E-06  -0.4168965022E-09  -0.7425021052E-09  -0.1142530950E-08
   0.2000000000E+01   0.5009999999E+00   0.5009999999E+00   0.9999999999E-01  -0.4990000001E-01  -0.4990000001E-01   0.0000000000E+00   0.0000000000E+00   0.0000000000E+00   0.9999999120E+01  -0.8936599702E-06  -0.8958244858E-06  -0.6242491621E-09   0.5410612701E-09  -0.1683546171E-08
   0.0000000000E+00   0.5010000002E+00   0.5009999999E+00   0.0000000000E+00  -0.4989999998E-01  -0.4990000001E-01   0.0000000000E+00   0.0000000000E+00   0.0000000000E+00   0.1000000036E+02   0.3448077943E-06   0.3441505946E-06  -0.1485388395E-08  -0.5341874941E-09   0.9888065330E-09
   0.4000000000E+01   0.0000000000E+00   0.2138087317E-09   0.2000000000E+00   0.0000000000E+00   0.2138087317E-10   0.0000000000E+00   0.0000000000E+00   0.0000000000E+00   0.9999998805E+01  -0.1207711269E-05  -0.1211621488E-05   0.1641094588E-09   0.2329992361E-08  -0.1632106549E-08
   0.4000000000E+01   0.5010000001E+00  -0.2754968631E-09   0.2000000000E+00  -0.4989999999E-01  -0.2754968631E-10   0.0000000000E+00   0.0000000000E+00   0.0000000000E+00   0.1000000103E+02   0.1013103762E-05   0.1016614738E-05  -0.8086250361E-10  -0.2560264186E-08  -0.1548436488E-08
   0.4000000000E+01   0.0000000000E+00   0.5009999997E+00   0.2000000000E+00   0.0000000000E+00  -0.4990000003E-01   0.0000000000E+00   0.0000000000E+00   0.0000000000E+00   0.9999999433E+01  -0.5808732914E-06  -0.5849508153E-06  -0.4176646994E-09  -0.1436403905E-08   0.2078490289E-08
   0.4000000000E+01   0.5010000001E+00   0.5010000003E+00   0.2000000000E+00  -0.4989999999E-01  -0.4989999997E-01   0.0000000000E+00   0.0000000000E+00   0.0000000000E+00   0.1000000134E+02   0.1322240510E-05   0.1325584181E-05   0.6530150690E-09   0.2141388583E-08   0.2162159012E-08
     1     2     3     4     5     6     7     8
     2     9    10     3     6    11    12     7
 VARIABLES = X,Y,Z,DU1,DU2,DU3,U1,U2,U3,S11,S22,S33,S12,S13,S23
 ZONE, T="0.2000D+01" F=FEPOINT, I=   12 J=    2 ET=BRICK
   0.0000000000E+00   0.0000000000E+00   0.0000000000E+00   0.0000000000E+00   0.0000000000E+00   0.0000000000E+00   0.0000000000E+00   0.0000000000E+00   0.0000000000E+00   0.1000000008E+02   0.6731503547E-07   0.6487303159E-07   0.2496307973E-15   0.7521491326E-09   0.6563568087E-09
   0.2000000000E+01   0.0000000000E+00   0.1147844232E-09  -0.1501825053E-10   0.0000000000E+00   0.2293762183E-10   0.1000000000E+00   0.0000000000E+00  -0.1145917951E-10   0.9999999477E+01  -0.5395879689E-06  -0.5414354603E-06   0.3542829532E-09  -0.2962200627E-09  -0.1401509920E-08
   0.2000000000E+01   0.5009999999E+00  -0.3053883804E-09   0.6291883681E-11  -0.1015700718E-10  -0.6113368636E-10   0.1000000000E+00  -0.4989999999E-01   0.3059484833E-10   0.1000000070E+02   0.6891776770E-06   0.6924152519E-06  -0.1965837203E-09   0.2552679075E-09  -0.8622047851E-09
   0.0000000000E+00   0.5010000003E+00   0.1967759839E-09   0.0000000000E+00   0.5456439467E-10   0.3937374366E-10   0.0000000000E+00  -0.4990000003E-01  -0.1969614527E-10   0.1000000034E+02   0.3291468818E-06   0.3266113845E-06  -0.1343065378E-08  -0.2578337473E-08  -0.9388860910E-09
   0.0000000000E+00   0.0000000000E+00   0.5009999999E+00   0.0000000000E+00   0.0000000000E+00  -0.1867585253E-10   0.0000000000E+00   0.0000000000E+00  -0.4989999999E-01   0.9999999435E+01  -0.5801722928E-06  -0.5794238512E-06   0.3678270881E-16  -0.9378271325E-09   0.6096109265E-09
   0.2000000000E+01   0.0000000000E+00   0.5009999998E+00  -0.1142266837E-10   0.0000000000E+00  -0.4255560487E-10   0.1000000000E+00   0.0000000000E+00  -0.4989999998E-01   0.9999999529E+01  -0.4838332497E-06  -0.4867592937E-06   0.4184009679E-09   0.7385477188E-09   0.1141023265E-08
   0.2000000000E+01   0.5010000001E+00   0.5010000001E+00   0.1361954993E-10   0.2223102952E-10   0.2590536119E-10   0.9999999999E-01  -0.4990000001E-01  -0.4990000001E-01   0.1000000090E+02   0.8880157866E-06   0.8901748089E-06   0.6240330886E-09  -0.5402170497E-09   0.1680329255E-08
   0.0000000000E+00   0.5009999998E+00   0.5010000001E+00   0.0000000000E+00  -0.4117448743E-10   0.1786925469E-10   0.0000000000E+00  -0.4989999998E-01  -0.4990000001E-01   0.9999999674E+01  -0.3418877700E-06  -0.3412328217E-06   0.1480509532E-08   0.5307339270E-09  -0.9856351662E-09
   0.4000000000E+01   0.0000000000E+00  -0.2132707845E-09   0.2216035688E-10   0.0000000000E+00  -0.4270795161E-10   0.2000000000E+00   0.0000000000E+00   0.2138087317E-10   0.1000000121E+02   0.1195559844E-05   0.1199460245E-05  -0.1601547931E-09  -0.2322993410E-08   0.1631095767E-08
   0.4000000000E+01   0.5009999999E+00   0.2757318570E-09   0.1243891101E-10  -0.1143775352E-10   0.5512287201E-10   0.2000000000E+00  -0.4989999999E-01  -0.2754968631E-10   0.9999998995E+01  -0.1019433193E-05  -0.1022947293E-05   0.8117784316E-10   0.2555714590E-08   0.1548849993E-08
   0.4000000000E+01   0.0000000000E+00   0.5010000003E+00  -0.2954481104E-10   0.0000000000E+00   0.6293674609E-10   0.2000000000E+00   0.0000000000E+00  -0.4990000003E-01   0.1000000059E+02   0.5737504772E-06   0.5778155463E-06   0.4133304268E-09   0.1436517680E-08  -0.2076154973E-08
   0.4000000000E+01   0.5009999999E+00   0.5009999997E+00  -0.4631572903E-11  -0.1641191349E-10  -0.6161953586E-10   0.2000000000E+00  -0.4989999999E-01  -0.4989999997E-01   0.9999998681E+01  -0.1331528456E-05  -0.1334877887E-05  -0.6559180032E-09  -0.2144322125E-08  -0.2158402084E-08
     1     2     3     4     5     6     7     8
     2     9    10     3     6    11    12     7
 VARIABLES = X,Y,Z,DU1,DU2,DU3,U1,U2,U3,S11,S22,S33,S12,S13,S23
 ZONE, T="0.3000D+01" F=FEPOINT, I=   12 J=    2 ET=BRICK
   0.0000000000E+00   0.0000000000E+00   0.0000000000E+00   0.0000000000E+00   0.0000000000E+00   0.0000000000E+00   0.0000000000E+00   0.0000000000E+00   0.0000000000E+00   0.1000000002E+02  -0.1470541136E-10  -0.1464016366E-10  -0.1599492590E-15   0.2555129689E-13  -0.3263510313E-14
   0.2000000000E+01   0.0000000000E+00   0.3804595117E-14   0.7473493238E-11   0.0000000000E+00  -0.1147806186E-10   0.9999999999E-01   0.0000000000E+00   0.1147844232E-10   0.1000000002E+02  -0.1649407474E-10  -0.1653100071E-10   0.4557464465E-13   0.4390232838E-13  -0.2593095269E-13
   0.2000000000E+01   0.5010000000E+00  -0.3995203173E-14  -0.3146566001E-11   0.5098145178E-11   0.3053843852E-10   0.1000000000E+00  -0.4990000001E-01  -0.3053883804E-10   0.1000000001E+02  -0.1681018896E-10  -0.1675716080E-10   0.4587786389E-13  -0.3559360492E-13   0.1525632334E-14
   0.0000000000E+00   0.5010000000E+00  -0.9751689158E-15   0.0000000000E+00  -0.2724952541E-10  -0.1967769590E-10   0.0000000000E+00  -0.4989999997E-01   0.1967759839E-10   0.1000000001E+02   0.1970417367E-10   0.1972603938E-10  -0.3693653536E-13  -0.1050924957E-13  -0.1062458272E-14
   0.0000000000E+00   0.0000000000E+00   0.5010000000E+00   0.0000000000E+00   0.0000000000E+00   0.9357005253E-11   0.0000000000E+00   0.0000000000E+00  -0.4990000001E-01   0.1000000001E+02   0.3394181301E-10   0.3400706071E-10  -0.3094114777E-16  -0.4939327151E-13  -0.2576753832E-13
   0.2000000000E+01   0.0000000000E+00   0.5010000000E+00   0.5692315663E-11   0.0000000000E+00   0.2131362242E-10   0.9999999999E-01   0.0000000000E+00  -0.4990000002E-01   0.1000000001E+02  -0.1215186034E-10  -0.1218878631E-10  -0.3862643814E-13   0.3933348000E-13   0.1849236741E-13
   0.2000000000E+01   0.5010000000E+00   0.5010000000E+00  -0.6852492214E-11  -0.1106940150E-10  -0.1289369986E-10   0.1000000000E+00  -0.4989999999E-01  -0.4989999999E-01   0.1000000001E+02   0.1788640660E-10   0.1793943477E-10  -0.3658491136E-13  -0.4037915395E-13   0.4756315428E-13
   0.0000000000E+00   0.5010000000E+00   0.5010000000E+00   0.0000000000E+00   0.2057598430E-10  -0.8919866137E-11   0.0000000000E+00  -0.4990000002E-01  -0.4989999999E-01   0.1000000001E+02  -0.9239855662E-11  -0.9217989949E-11   0.1920746873E-15   0.1506402146E-13  -0.2186704827E-13
   0.4000000000E+01   0.0000000000E+00  -0.7327046174E-14  -0.1098539732E-10   0.0000000000E+00   0.2132634574E-10   0.2000000000E+00   0.0000000000E+00  -0.2132707845E-10   0.1000000002E+02   0.5426338404E-10   0.5431534585E-10  -0.9189493324E-13  -0.8397514362E-13   0.1777193807E-14
   0.4000000000E+01   0.5010000000E+00  -0.6829764843E-14  -0.6186691862E-11   0.5780494154E-11  -0.2757386867E-10   0.2000000000E+00  -0.4990000001E-01   0.2757318570E-10   0.1000000001E+02  -0.4834254037E-10  -0.4833807167E-10  -0.5208106504E-13   0.6965838459E-13   0.6040148960E-14
   0.4000000000E+01   0.0000000000E+00   0.5010000000E+00   0.1478035677E-10   0.0000000000E+00  -0.3136155725E-10   0.2000000000E+00   0.0000000000E+00  -0.4989999997E-01   0.1000000001E+02  -0.9232583456E-11  -0.9180621643E-11   0.2859574065E-13  -0.1882067306E-13  -0.2201383601E-13
   0.4000000000E+01   0.5010000000E+00   0.5010000000E+00   0.2389558205E-11   0.8246397606E-11   0.3088091563E-10   0.2000000000E+00  -0.4990000001E-01  -0.4990000003E-01   0.1000000001E+02   0.2646150817E-10   0.2646597687E-10   0.2872302443E-13   0.3777023726E-13  -0.1712390505E-13
     1     2     3     4     5     6     7     8
     2     9    10     3     6    11    12     7
 VARIABLES = X,Y,Z,DU1,DU2,DU3,U1,U2,U3,S11,S22,S33,S12,S13,S23
 ZONE, T="0.4000D+01" F=FEPOINT, I=   12 J=    2 ET=BRICK
   0.0000000000E+00   0.0000000000E+00   0.0000000000E+00   0.0000000000E+00   0.0000000000E+00   0.0000000000E+00   0.0000000000E+00   0.0000000000E+00   0.0000000000E+00   0.1000000002E+02   0.1162180922E-10   0.1148339858E-10   0.3048030431E-16   0.2252002181E-13   0.2424017225E-13
   0.2000000000E+01   0.0000000000E+00   0.3418091291E-14   0.8033262135E-15   0.0000000000E+00  -0.3865038259E-16   0.1000000000E+00   0.0000000000E+00   0.3804595117E-15   0.1000000002E+02  -0.1474458443E-10  -0.1483783147E-10  -0.1820838197E-13   0.8780872031E-14  -0.2177185933E-13
   0.2000000000E+01   0.5010000000E+00  -0.3095868792E-14  -0.1093800180E-14   0.6984371511E-15   0.8993343805E-16   0.1000000000E+00  -0.4990000000E-01  -0.3995203173E-15   0.1000000001E+02   0.9354146984E-11   0.9332210925E-11  -0.1801918482E-13   0.5018303491E-14  -0.9909324625E-14
   0.0000000000E+00   0.5010000000E+00   0.7223338145E-14   0.0000000000E+00   0.7481997186E-16   0.8198507060E-15   0.0000000000E+00  -0.4990000000E-01  -0.9751689158E-16   0.1000000001E+02  -0.2373689337E-10  -0.2395203508E-10  -0.5322503073E-14  -0.4215872963E-13   0.8735661667E-14
   0.0000000000E+00   0.0000000000E+00   0.5010000000E+00   0.0000000000E+00   0.0000000000E+00  -0.1455030392E-15   0.0000000000E+00   0.0000000000E+00  -0.4990000000E-01   0.1000000001E+02   0.1508275052E-10   0.1519047907E-10   0.1451182200E-15  -0.2603067602E-13  -0.1443796523E-13
   0.2000000000E+01   0.0000000000E+00   0.5010000000E+00  -0.3258381808E-15   0.0000000000E+00   0.2763903294E-15   0.1000000000E+00   0.0000000000E+00  -0.4990000000E-01   0.1000000001E+02  -0.4979871461E-12  -0.4927785040E-12  -0.1258311693E-13  -0.3145272183E-14   0.1374503047E-13
   0.2000000000E+01   0.5010000000E+00   0.5010000000E+00   0.4510053855E-15   0.1985100882E-15   0.1257234437E-15   0.1000000000E+00  -0.4990000000E-01  -0.4990000000E-01   0.1000000001E+02   0.1712059547E-10   0.1719711510E-10  -0.8602390813E-14   0.1105151932E-13   0.2316581632E-13
   0.0000000000E+00   0.5010000000E+00   0.5010000000E+00   0.0000000000E+00  -0.4415279609E-15   0.1818085139E-15   0.0000000000E+00  -0.4990000000E-01  -0.4990000000E-01   0.1000000001E+02  -0.1396633370E-10  -0.1393533621E-10   0.3063626043E-13   0.1281259544E-13  -0.2716227202E-13
   0.4000000000E+01   0.0000000000E+00  -0.6296290103E-14  -0.1810425697E-14   0.0000000000E+00   0.1030756071E-15   0.2000000000E+00   0.0000000000E+00  -0.7327046174E-15   0.1000000002E+02  -0.1300628772E-10  -0.1295818874E-10   0.2383232145E-13  -0.1059801974E-13   0.5560615667E-14
   0.4000000000E+01   0.5010000000E+00  -0.4641668732E-14   0.1602668240E-14   0.4958412733E-16   0.2188096111E-15   0.2000000000E+00  -0.4990000000E-01  -0.6829764843E-15   0.1000000001E+02   0.1372683985E-10   0.1376664067E-10   0.2961021192E-13   0.1464252646E-13  -0.2073381136E-14
   0.4000000000E+01   0.0000000000E+00   0.5010000000E+00   0.3049121014E-15   0.0000000000E+00  -0.5163623999E-15   0.2000000000E+00   0.0000000000E+00  -0.4990000000E-01   0.1000000001E+02  -0.1014296452E-10  -0.1014409338E-10   0.1290749443E-15   0.1585785663E-13   0.9506331070E-15
   0.4000000000E+01   0.5010000000E+00   0.5010000000E+00  -0.4939491904E-15  -0.3094767278E-15   0.1659766704E-15   0.2000000000E+00  -0.4990000000E-01  -0.4990000000E-01   0.1000000001E+02  -0.2679752905E-11  -0.2689179927E-11  -0.2175277564E-13  -0.3071418609E-13  -0.6229156222E-14
     1     2     3     4     5     6     7     8
     2     9    10     3     6    11    12     7
 VARIABLES = X,Y,Z,DU1,DU2,DU3,U1,U2,U3,S11,S22,S33,S12,S13,S23
 ZONE, T="0.5000D+01" F=FEPOINT, I=   12 J=    2 ET=BRICK
   0.0000000000E+00   0.0000000000E+00   0.0000000000E+00   0.0000000000E+00   0.0000000000E+00   0.0000000000E+00   0.0000000000E+00   0.0000000000E+00   0.0000000000E+00   0.1000000002E+02  -0.1504922493E-10  -0.1499751446E-10  -0.4418437653E-16  -0.2550958055E-13   0.2663816625E-13
   0.2000000000E+01   0.0000000000E+00  -0.8352564824E-14  -0.9604443736E-15   0.0000000000E+00  -0.1177065612E-14   0.1000000000E+00   0.0000000000E+00   0.3418091291E-15   0.1000000002E+02   0.6369855906E-11   0.6264193813E-11   0.1278507561E-13   0.2232822274E-13  -0.8306800058E-16
   0.2000000000E+01   0.5010000000E+00  -0.8504854663E-14  -0.3468709222E-16   0.5069699200E-15  -0.5408985871E-15   0.1000000000E+00  -0.4990000000E-01  -0.3095868792E-15   0.1000000001E+02   0.9619949372E-11   0.9528390621E-11   0.3033312621E-14  -0.7560388958E-14   0.2273749579E-14
   0.0000000000E+00   0.5010000000E+00   0.8064255823E-14   0.0000000000E+00   0.3804895499E-15   0.8409176781E-16   0.0000000000E+00  -0.4990000000E-01   0.7223338145E-15   0.1000000001E+02  -0.2401284513E-10  -0.2403301908E-10   0.5652629419E-14  -0.6494374264E-13  -0.4817342364E-14
   0.0000000000E+00   0.0000000000E+00   0.5010000000E+00   0.0000000000E+00   0.0000000000E+00  -0.6868446009E-15   0.0000000000E+00   0.0000000000E+00  -0.4990000000E-01   0.1000000001E+02   0.7990443752E-11   0.8042154219E-11  -0.8997649080E-16  -0.2570774370E-14  -0.9440069150E-14
   0.2000000000E+01   0.0000000000E+00   0.5010000000E+00   0.1160729274E-15   0.0000000000E+00  -0.2079246491E-15   0.1000000000E+00   0.0000000000E+00  -0.4990000000E-01   0.1000000001E+02   0.1174888116E-10   0.1164321906E-10  -0.1396234627E-13   0.3487294874E-13   0.6859948458E-14
   0.2000000000E+01   0.5010000000E+00   0.5010000000E+00   0.7760239193E-16   0.2865298858E-15  -0.4033580323E-15   0.1000000000E+00  -0.4990000000E-01  -0.4990000000E-01   0.1000000001E+02   0.2557184896E-10   0.2548029021E-10  -0.8973212835E-14  -0.9434713966E-15   0.1112965581E-13
   0.0000000000E+00   0.5010000000E+00   0.5010000000E+00   0.0000000000E+00  -0.1506829227E-15  -0.5339268352E-15   0.0000000000E+00  -0.4990000000E-01  -0.4990000000E-01   0.1000000001E+02  -0.2570005949E-10  -0.2572023343E-10   0.5235458199E-13   0.2675538551E-13  -0.4096082599E-13
   0.4000000000E+01   0.0000000000E+00  -0.1980964434E-13  -0.5367339904E-15   0.0000000000E+00  -0.1351335424E-14   0.2000000000E+00   0.0000000000E+00  -0.6296290103E-15   0.1000000002E+02   0.8650672397E-11   0.8747940059E-11   0.1265909769E-14  -0.2466795664E-13   0.2107765002E-13
   0.4000000000E+01   0.5010000000E+00  -0.1344827763E-13  -0.1172826968E-14  -0.2120777546E-15  -0.8806608896E-15   0.2000000000E+00  -0.4990000000E-01  -0.4641668732E-15   0.1000000001E+02  -0.2335354293E-10  -0.2334653189E-10  -0.2326105337E-13   0.4952750419E-13   0.1939973740E-13
   0.4000000000E+01   0.0000000000E+00   0.5010000000E+00  -0.1029679776E-14   0.0000000000E+00  -0.6623648018E-15   0.2000000000E+00   0.0000000000E+00  -0.4990000000E-01   0.1000000001E+02  -0.2443563399E-10  -0.2433836633E-10   0.4126369391E-13  -0.2700141752E-13  -0.2461858466E-13
   0.4000000000E+01   0.5010000000E+00   0.5010000000E+00   0.1603003357E-15  -0.6749246284E-16  -0.1428198651E-14   0.2000000000E+00  -0.4990000000E-01  -0.4990000000E-01   0.1000000001E+02  -0.1056721761E-10  -0.1056020656E-10  -0.2483532487E-14  -0.2883678029E-13  -0.2736641386E-13
     1     2     3     4     5     6     7     8
     2     9    10     3     6    11    12     7
 VARIABLES = X,Y,Z,DU1,DU2,DU3,U1,U2,U3,S11,S22,S33,S12,S13,S23
 ZONE, T="0.6000D+01" F=FEPOINT, I=   12 J=    2 ET=BRICK
   0.0000000000E+00   0.0000000000E+00   0.0000000000E+00   0.0000000000E+00   0.0000000000E+00   0.0000000000E+00   0.0000000000E+00   0.0000000000E+00   0.0000000000E+00   0.1000000002E+02  -0.1324558305E-10  -0.1340514910E-10  -0.7622613780E-16  -0.4706814845E-13   0.1299420886E-13
   0.2000000000E+01   0.0000000000E+00  -0.1235653723E-13   0.2911006763E-15   0.0000000000E+00  -0.4003972407E-15   0.1000000000E+00   0.0000000000E+00  -0.8352564824E-15   0.1000000002E+02   0.7071139068E-11   0.7037050034E-11  -0.1241734859E-13   0.3470855144E-13   0.1345691368E-13
   0.2000000000E+01   0.5010000000E+00  -0.8288430240E-14  -0.4749469613E-15   0.1952265592E-15   0.2164244234E-16   0.1000000000E+00  -0.4990000000E-01  -0.8504854663E-15   0.1000000001E+02   0.9466127454E-11   0.9395166675E-11  -0.3189368224E-13   0.1804994772E-14  -0.1331103183E-14
   0.0000000000E+00   0.5010000000E+00   0.3877827594E-14   0.0000000000E+00   0.2936548208E-16  -0.4186428229E-15   0.0000000000E+00  -0.4990000000E-01   0.8064255823E-15   0.1000000001E+02  -0.3106668049E-10  -0.3124057856E-10   0.1864073494E-13  -0.3564111321E-13  -0.8234035276E-14
   0.0000000000E+00   0.0000000000E+00   0.5010000000E+00   0.0000000000E+00   0.0000000000E+00  -0.3772674061E-15   0.0000000000E+00   0.0000000000E+00  -0.4990000000E-01   0.1000000001E+02   0.2042988661E-10   0.2045404136E-10  -0.4652808245E-17  -0.9076624866E-15   0.6367274856E-14
   0.2000000000E+01   0.0000000000E+00   0.5010000000E+00   0.5791285764E-15   0.0000000000E+00  -0.4793523455E-15   0.1000000000E+00   0.0000000000E+00  -0.4990000000E-01   0.1000000001E+02   0.7786016957E-11   0.7850383605E-11  -0.2506398222E-13   0.3021691224E-13  -0.4827871793E-14
   0.2000000000E+01   0.5010000000E+00   0.5010000000E+00   0.2463509773E-15  -0.3586755282E-15  -0.8405538582E-15   0.1000000000E+00  -0.4990000000E-01  -0.4990000000E-01   0.1000000001E+02   0.7452521643E-11   0.7480016545E-11  -0.1704634290E-13   0.2089655335E-13  -0.1908972789E-13
   0.0000000000E+00   0.5010000000E+00   0.5010000000E+00   0.0000000000E+00   0.3567792403E-15   0.9036480069E-16   0.0000000000E+00  -0.4990000000E-01  -0.4990000000E-01   0.1000000001E+02  -0.6258782775E-11  -0.6248960043E-11   0.1505449961E-13  -0.1869867883E-13  -0.1627365300E-13
   0.4000000000E+01   0.0000000000E+00  -0.1772098764E-13  -0.7410832386E-16   0.0000000000E+00   0.2088656698E-15   0.2000000000E+00   0.0000000000E+00  -0.1980964434E-14   0.1000000002E+02  -0.3136064162E-10  -0.3140472423E-10   0.4451870245E-13   0.2383540308E-13  -0.2978811074E-13
   0.4000000000E+01   0.5010000000E+00  -0.2665024484E-13   0.1200637473E-14  -0.5045219445E-15  -0.1320196721E-14   0.2000000000E+00  -0.4990000000E-01  -0.1344827763E-14   0.1000000001E+02   0.2728476943E-10   0.2732549330E-10  -0.1069485057E-13  -0.4238237871E-13   0.1460776008E-14
   0.4000000000E+01   0.0000000000E+00   0.5010000000E+00   0.4303635588E-15   0.0000000000E+00  -0.1153940669E-14   0.2000000000E+00   0.0000000000E+00  -0.4990000000E-01   0.1000000001E+02  -0.4348378820E-10  -0.4351468025E-10   0.3663677031E-13  -0.3722829611E-13   0.1290882144E-13
   0.4000000000E+01   0.5010000000E+00   0.5010000000E+00   0.2951685698E-15   0.5038523198E-15  -0.2102070187E-16   0.2000000000E+00  -0.4990000000E-01  -0.4990000000E-01   0.1000000001E+02   0.1857222738E-10   0.1862614181E-10   0.3563418828E-13  -0.1691424456E-13   0.4451807037E-13
     1     2     3     4     5     6     7     8
     2     9    10     3     6    11    12     7
 VARIABLES = X,Y,Z,DU1,DU2,DU3,U1,U2,U3,S11,S22,S33,S12,S13,S23
 ZONE, T="0.7000D+01" F=FEPOINT, I=   12 J=    2 ET=BRICK
   0.0000000000E+00   0.0000000000E+00   0.0000000000E+00   0.0000000000E+00   0.0000000000E+00   0.0000000000E+00   0.0000000000E+00   0.0000000000E+00   0.0000000000E+00   0.1000000002E+02   0.1800953661E-10   0.1804456159E-10  -0.3440855390E-16   0.1298959816E-13   0.1885444998E-13
   0.2000000000E+01   0.0000000000E+00   0.6198267984E-14   0.1260626890E-14   0.0000000000E+00   0.1855480522E-14   0.1000000000E+00   0.0000000000E+00  -0.1235653723E-14   0.1000000002E+02   0.6096037738E-11   0.6115748727E-11  -0.5066018294E-14  -0.1039376831E-14   0.4714517588E-14
   0.2000000000E+01   0.5010000000E+00   0.7693791656E-14   0.1475315019E-14  -0.7074314352E-15   0.1598222190E-14   0.1000000000E+00  -0.4990000000E-01  -0.8288430240E-15   0.1000000001E+02   0.9692076322E-11   0.9660891925E-11  -0.3179298780E-13   0.1079569458E-13   0.1027349612E-13
   0.0000000000E+00   0.5010000000E+00   0.5591617591E-14   0.0000000000E+00  -0.2342615184E-15   0.1713789997E-15   0.0000000000E+00  -0.4990000000E-01   0.3877827594E-15   0.1000000001E+02  -0.6687129422E-11  -0.6706484541E-11  -0.1431312119E-14   0.2941387509E-14   0.1422460740E-13
   0.0000000000E+00   0.0000000000E+00   0.5010000000E+00   0.0000000000E+00   0.0000000000E+00   0.7391996935E-15   0.0000000000E+00   0.0000000000E+00  -0.4990000000E-01   0.1000000001E+02  -0.9529963496E-11  -0.9494938525E-11   0.2791269903E-15   0.1207799874E-13  -0.8227163357E-14
   0.2000000000E+01   0.0000000000E+00   0.5010000000E+00  -0.1791302649E-14   0.0000000000E+00   0.1491613861E-14   0.1000000000E+00   0.0000000000E+00  -0.4990000000E-01   0.1000000001E+02   0.5309778317E-11   0.5329489307E-11   0.2647105900E-13  -0.2168658571E-13  -0.1992661010E-13
   0.2000000000E+01   0.5010000000E+00   0.5010000000E+00  -0.2249416584E-15  -0.1297007985E-15   0.1025799725E-14   0.1000000000E+00  -0.4990000000E-01  -0.4990000000E-01   0.1000000001E+02  -0.9511448076E-11  -0.9542632473E-11   0.1754801474E-13   0.1853535593E-13  -0.1694637324E-13
   0.0000000000E+00   0.5010000000E+00   0.5010000000E+00   0.0000000000E+00   0.2896851592E-15   0.3254255632E-15   0.0000000000E+00  -0.4990000000E-01  -0.4990000000E-01   0.1000000001E+02  -0.2508007223E-11  -0.2527362342E-11   0.2899681700E-14  -0.1090962674E-13  -0.1107734661E-13
   0.4000000000E+01   0.0000000000E+00   0.2092817208E-13   0.2036197083E-14   0.0000000000E+00   0.3864915972E-14   0.2000000000E+00   0.0000000000E+00  -0.1772098764E-14   0.1000000002E+02  -0.3485044717E-10  -0.3489332494E-10   0.6372058771E-13   0.4466287182E-13  -0.1979781997E-13
   0.4000000000E+01   0.5010000000E+00   0.1500871386E-13   0.2618983902E-14  -0.7032124152E-15   0.4165895871E-14   0.2000000000E+00  -0.4990000000E-01  -0.2665024484E-14   0.1000000001E+02   0.2163844763E-10   0.2164674696E-10   0.1190523960E-13  -0.5319277260E-13   0.9445914252E-14
   0.4000000000E+01   0.0000000000E+00   0.5010000000E+00   0.6525139609E-15   0.0000000000E+00   0.3743239880E-14   0.2000000000E+00   0.0000000000E+00  -0.4990000000E-01   0.1000000001E+02  -0.1589387040E-13  -0.5877164725E-13  -0.6274468756E-14   0.7092122813E-14   0.5748806097E-14
   0.4000000000E+01   0.5010000000E+00   0.5010000000E+00  -0.6470947896E-15  -0.7666733651E-15   0.3521520763E-14   0.2000000000E+00  -0.4990000000E-01  -0.4990000000E-01   0.1000000001E+02  -0.1208015133E-10  -0.1207185200E-10  -0.3010738417E-13  -0.2901794362E-13   0.3459482431E-13
     1     2     3     4     5     6     7     8
     2     9    10     3     6    11    12     7
 VARIABLES = X,Y,Z,DU1,DU2,DU3,U1,U2,U3,S11,S22,S33,S12,S13,S23
 ZONE, T="0.8000D+01" F=FEPOINT, I=   12 J=    2 ET=BRICK
   0.0000000000E+00   0.0000000000E+00   0.0000000000E+00   0.0000000000E+00   0.0000000000E+00   0.0000000000E+00   0.0000000000E+00   0.0000000000E+00   0.0000000000E+00   0.1000000002E+02   0.1562413518E-10   0.1546410889E-10  -0.3515086337E-16   0.1651518421E-13   0.2627971289E-13
   0.2000000000E+01   0.0000000000E+00   0.3969319894E-14  -0.9900731024E-15   0.0000000000E+00  -0.2228948090E-15   0.1000000000E+00   0.0000000000E+00   0.6198267984E-15   0.1000000002E+02  -0.2150676480E-11  -0.1995063365E-11   0.9585793380E-15   0.1466617882E-13   0.5420034030E-14
   0.2000000000E+01   0.5010000000E+00   0.5546600031E-14  -0.7885163658E-15  -0.3196734430E-15  -0.2147191625E-15   0.1000000000E+00  -0.4990000000E-01   0.7693791656E-15   0.1000000001E+02  -0.1132285469E-10  -0.1119685686E-10  -0.1665896539E-13   0.1735549693E-13   0.1967323868E-14
   0.0000000000E+00   0.5010000000E+00   0.7932242021E-14   0.0000000000E+00   0.3490735585E-15   0.2340624430E-15   0.0000000000E+00  -0.4990000000E-01   0.5591617591E-15   0.1000000001E+02  -0.2683121266E-11  -0.2924667631E-11  -0.3931306696E-13  -0.8243998538E-14   0.1864228104E-13
   0.0000000000E+00   0.0000000000E+00   0.5010000000E+00   0.0000000000E+00   0.0000000000E+00   0.8388306345E-15   0.0000000000E+00   0.0000000000E+00  -0.4990000000E-01   0.1000000001E+02   0.1714303695E-10   0.1730122441E-10  -0.1589869151E-15  -0.2653319826E-13  -0.1386363133E-13
   0.2000000000E+01   0.0000000000E+00   0.5010000000E+00   0.3701605899E-15   0.0000000000E+00  -0.1896229757E-15   0.1000000000E+00   0.0000000000E+00  -0.4990000000E-01   0.1000000001E+02  -0.2573467632E-11  -0.2588384749E-11   0.1783041749E-13  -0.2208272211E-14  -0.9587463417E-14
   0.2000000000E+01   0.5010000000E+00   0.5010000000E+00   0.7279555226E-16  -0.5560358705E-15   0.1308899655E-15   0.1000000000E+00  -0.4990000000E-01  -0.4990000000E-01   0.1000000001E+02  -0.1822579463E-10  -0.1827032703E-10   0.2045845939E-13   0.1231256566E-13  -0.1349158600E-13
   0.0000000000E+00   0.5010000000E+00   0.5010000000E+00   0.0000000000E+00   0.2318797625E-15   0.6419200242E-15   0.0000000000E+00  -0.4990000000E-01  -0.4990000000E-01   0.1000000001E+02   0.1333084986E-10   0.1340751725E-10  -0.4284844740E-13  -0.1888556920E-13  -0.2330042531E-13
   0.4000000000E+01   0.0000000000E+00   0.3789553765E-14  -0.3975882974E-15   0.0000000000E+00  -0.1713861831E-14   0.2000000000E+00   0.0000000000E+00   0.2092817208E-14   0.1000000002E+02   0.1382477888E-10   0.1383334021E-10  -0.5450289693E-14   0.4718851534E-15  -0.2119854951E-14
   0.4000000000E+01   0.5010000000E+00   0.3174152920E-14  -0.2480471264E-14   0.8639298959E-15  -0.1183456094E-14   0.2000000000E+00  -0.4990000000E-01   0.1500871386E-14   0.1000000001E+02  -0.1457623847E-11  -0.1487724256E-11  -0.1788688800E-14  -0.3003370600E-13   0.3256791681E-13
   0.4000000000E+01   0.0000000000E+00   0.5010000000E+00   0.1182982803E-15   0.0000000000E+00  -0.6775680584E-15   0.2000000000E+00   0.0000000000E+00  -0.4990000000E-01   0.1000000001E+02   0.2749013654E-10   0.2752154459E-10  -0.3436549111E-13   0.1621632074E-13  -0.2105851229E-13
   0.4000000000E+01   0.5010000000E+00   0.5010000000E+00  -0.6855012106E-15   0.1036945476E-14  -0.1489749473E-14   0.2000000000E+00  -0.4990000000E-01  -0.4990000000E-01   0.1000000001E+02  -0.1524763312E-10  -0.1525488682E-10   0.1500280720E-13  -0.3340592637E-13   0.1407480182E-13
     1     2     3     4     5     6     7     8
     2     9    10     3     6    11    12     7
 VARIABLES = X,Y,Z,DU1,DU2,DU3,U1,U2,U3,S11,S22,S33,S12,S13,S23
 ZONE, T="0.9000D+01" F=FEPOINT, I=   12 J=    2 ET=BRICK
   0.0000000000E+00   0.0000000000E+00   0.0000000000E+00   0.0000000000E+00   0.0000000000E+00   0.0000000000E+00   0.0000000000E+00   0.0000000000E+00   0.0000000000E+00   0.1000000002E+02   0.1130084947E-10   0.1128349316E-10  -0.6117867168E-16  -0.6239822861E-15  -0.1502803525E-14